LAMMPS data file
 2200 atoms
 3 atom types
 3.97750 44.87750  xlo xhi
 3.97750 44.87750  ylo yhi
 -2.00000 62.00000  zlo zhi

# Pair Coeffs
# 1  H-h2o2
# 2  O-h2o2
# 3  Ag

 Masses

 1 1.007940 # H
 2 15.999400 # O
 3 107.868200 # Ag

 Atoms # charge

1 2 -0.410000 9.476000 39.588001 48.014073
2 2 -0.410000 8.033000 39.428001 48.088074
3 1 0.410000 9.667000 39.305000 48.928074
4 1 0.410000 7.843000 39.712002 47.173073
5 2 -0.410000 23.820000 17.299000 40.829075
6 2 -0.410000 24.783001 18.268000 41.325074
7 1 0.410000 23.046000 17.655001 41.308075
8 1 0.410000 25.555000 17.912001 40.847073
9 2 -0.410000 38.146999 24.177000 51.742074
10 2 -0.410000 39.179001 23.215000 51.393074
11 1 0.410000 37.391998 23.658001 51.405076
12 1 0.410000 39.933998 23.733999 51.730072
13 2 -0.410000 29.021999 15.439000 45.164074
14 2 -0.410000 28.393999 16.506001 45.925072
15 1 0.410000 28.569000 14.700000 45.613076
16 1 0.410000 28.847000 17.245001 45.476075
17 2 -0.410000 22.908001 19.539000 36.121075
18 2 -0.410000 23.848000 19.704000 37.217076
19 1 0.410000 22.393000 18.813999 36.523076
20 1 0.410000 24.363001 20.429001 36.814072
21 2 -0.410000 8.805000 38.313000 54.109074
22 2 -0.410000 9.547000 39.529999 53.829075
23 1 0.410000 8.044000 38.742001 54.544075
24 1 0.410000 10.307000 39.099998 53.394074
25 2 -0.410000 38.266998 28.704000 45.885075
26 2 -0.410000 38.050999 27.362000 46.400074
27 1 0.410000 38.113998 29.173000 46.728074
28 1 0.410000 38.202999 26.893999 45.557072
29 2 -0.410000 36.210999 22.607000 53.084073
30 2 -0.410000 36.646999 21.238001 52.865075
31 1 0.410000 35.441002 22.577000 52.485074
32 1 0.410000 37.417000 21.268999 53.465073
33 2 -0.410000 40.735001 19.934999 34.732075
34 2 -0.410000 39.938000 20.337999 33.586075
35 1 0.410000 40.188000 20.375999 35.410073
36 1 0.410000 40.487000 19.896999 32.909073
37 2 -0.410000 32.153999 30.260000 37.680073
38 2 -0.410000 31.841999 30.645000 39.046074
39 1 0.410000 32.627998 31.079000 37.438073
40 1 0.410000 31.368000 29.826000 39.287075
41 2 -0.410000 39.681999 9.673000 34.451073
42 2 -0.410000 40.589001 9.185000 35.475075
43 1 0.410000 38.863998 9.596000 34.979073
44 1 0.410000 41.405998 9.262000 34.947075
45 2 -0.410000 23.724001 28.577999 48.223073
46 2 -0.410000 25.127001 28.954000 48.161072
47 1 0.410000 23.870001 27.617001 48.314072
48 1 0.410000 24.980000 29.915001 48.070073
49 2 -0.410000 17.603001 19.106001 41.452073
50 2 -0.410000 18.493000 18.330000 40.604073
51 1 0.410000 16.941000 18.402000 41.592076
52 1 0.410000 19.155001 19.034000 40.464074
53 2 -0.410000 20.990999 13.436000 52.167073
54 2 -0.410000 22.268999 14.127000 52.155076
55 1 0.410000 20.434999 14.230000 52.288075
56 1 0.410000 22.823999 13.333000 52.034073
57 2 -0.410000 15.404000 25.905001 40.133072
58 2 -0.410000 16.513000 26.722000 39.669075
59 1 0.410000 15.904000 25.412001 40.812073
60 1 0.410000 16.011999 27.214001 38.991074
61 2 -0.410000 33.889999 35.210999 51.777073
62 2 -0.410000 34.223999 36.609001 51.993073
63 1 0.410000 33.007999 35.366001 51.387074
64 1 0.410000 35.105000 36.453999 52.384076
65 2 -0.410000 33.265999 29.301001 44.404072
66 2 -0.410000 33.627998 30.621000 43.914074
67 1 0.410000 34.148998 29.061001 44.743073
68 1 0.410000 32.743999 30.860001 43.575074
69 2 -0.410000 29.872999 10.639000 40.495076
70 2 -0.410000 28.583000 10.349000 41.097073
71 1 0.410000 29.538000 10.831000 39.598073
72 1 0.410000 28.919001 10.157000 41.993073
73 2 -0.410000 9.641000 6.963000 47.553074
74 2 -0.410000 9.659000 8.183000 48.341073
75 1 0.410000 10.575000 6.719000 47.701073
76 1 0.410000 8.725000 8.426000 48.192074
77 2 -0.410000 22.565001 16.115999 46.094075
78 2 -0.410000 21.528000 15.596000 45.218075
79 1 0.410000 22.385000 17.062000 45.932072
80 1 0.410000 21.709000 14.651000 45.380074
81 2 -0.410000 27.431999 15.700000 39.511075
82 2 -0.410000 27.441000 14.590000 40.450074
83 1 0.410000 26.500000 15.956000 39.651074
84 1 0.410000 28.372999 14.335000 40.310074
85 2 -0.410000 22.235001 21.785000 43.403073
86 2 -0.410000 22.888000 20.524000 43.711075
87 1 0.410000 22.906000 22.363001 43.815075
88 1 0.410000 22.216999 19.948000 43.299073
89 2 -0.410000 5.963000 35.132999 39.298073
90 2 -0.410000 5.392000 36.469002 39.326073
91 1 0.410000 5.129000 34.651001 39.456074
92 1 0.410000 6.226000 36.950001 39.168072
93 2 -0.410000 24.315001 16.090000 51.664074
94 2 -0.410000 25.490999 15.684000 52.414074
95 1 0.410000 24.270000 15.302000 51.090073
96 1 0.410000 25.535000 16.473000 52.987072
97 2 -0.410000 9.398000 39.806999 39.216073
98 2 -0.410000 10.769000 39.675999 38.751072
99 1 0.410000 9.243000 38.855999 39.376072
100 1 0.410000 10.924000 40.626999 38.591073
101 2 -0.410000 33.300999 7.665000 46.169075
102 2 -0.410000 33.973000 7.143000 44.991074
103 1 0.410000 32.477001 7.932000 45.719075
104 1 0.410000 34.797001 6.877000 45.442074
105 2 -0.410000 29.551001 31.787001 49.344075
106 2 -0.410000 30.809000 32.507000 49.449074
107 1 0.410000 29.028999 32.528000 48.979073
108 1 0.410000 31.330000 31.766001 49.814072
109 2 -0.410000 27.159000 25.893000 34.054074
110 2 -0.410000 27.382999 24.704000 34.859074
111 1 0.410000 27.188000 26.534000 34.790074
112 1 0.410000 27.354000 24.063999 34.122075
113 2 -0.410000 25.371000 17.830999 35.031075
114 2 -0.410000 24.239000 18.368999 34.296074
115 1 0.410000 25.054001 16.909000 35.067074
116 1 0.410000 24.556999 19.291000 34.261075
117 2 -0.410000 37.915001 22.988001 44.125073
118 2 -0.410000 36.978001 24.069000 44.383072
119 1 0.410000 38.723000 23.535000 44.134076
120 1 0.410000 36.169998 23.520000 44.374073
121 2 -0.410000 8.495000 27.589001 46.805073
122 2 -0.410000 7.378000 28.392000 46.335076
123 1 0.410000 8.950000 28.302999 47.291073
124 1 0.410000 6.924000 27.677999 45.849076
125 2 -0.410000 23.315001 37.811001 52.919075
126 2 -0.410000 23.438000 36.911999 54.054074
127 1 0.410000 22.598000 37.326000 52.468075
128 1 0.410000 24.156000 37.398998 54.503075
129 2 -0.410000 35.856998 33.528000 37.589074
130 2 -0.410000 36.514000 34.535000 36.772072
131 1 0.410000 36.658001 33.223999 38.057072
132 1 0.410000 35.713001 34.838001 36.303074
133 2 -0.410000 38.365002 39.233002 45.973073
134 2 -0.410000 38.863998 38.073002 45.254075
135 1 0.410000 38.953999 39.146999 46.747075
136 1 0.410000 38.275002 38.160000 44.480072
137 2 -0.410000 21.648001 19.767000 52.996075
138 2 -0.410000 21.099001 18.424999 52.902073
139 1 0.410000 20.820000 20.242001 52.791073
140 1 0.410000 21.927999 17.951000 53.107075
141 2 -0.410000 28.829000 10.710000 37.394074
142 2 -0.410000 27.816000 11.751000 37.445073
143 1 0.410000 28.229000 9.961000 37.579075
144 1 0.410000 28.416000 12.499000 37.260075
145 2 -0.410000 33.737999 11.156000 37.213074
146 2 -0.410000 32.771000 12.217000 36.988076
147 1 0.410000 33.396999 10.877000 38.085076
148 1 0.410000 33.112000 12.495000 36.116074
149 2 -0.410000 21.486000 24.635000 52.325074
150 2 -0.410000 20.913000 23.337999 52.004075
151 1 0.410000 22.028000 24.721001 51.517075
152 1 0.410000 20.371000 23.254000 52.812073
153 2 -0.410000 27.910000 6.768000 34.793072
154 2 -0.410000 29.129999 6.154000 34.295075
155 1 0.410000 27.566999 5.978000 35.253075
156 1 0.410000 29.473000 6.945000 33.835076
157 2 -0.410000 22.731001 21.598000 51.024075
158 2 -0.410000 22.871000 21.945000 49.620076
159 1 0.410000 22.386999 20.695000 50.883072
160 1 0.410000 23.215000 22.847000 49.762074
161 2 -0.410000 36.432999 10.617000 41.225075
162 2 -0.410000 37.352001 10.826000 42.332074
163 1 0.410000 36.214001 11.558000 41.082074
164 1 0.410000 37.570000 9.885000 42.474076
165 2 -0.410000 38.084000 32.120998 44.239075
166 2 -0.410000 38.519001 32.627998 45.530076
167 1 0.410000 37.464001 31.450001 44.585076
168 1 0.410000 39.138000 33.298000 45.183075
169 2 -0.410000 36.662998 18.013000 44.435074
170 2 -0.410000 36.658001 19.400000 44.001072
171 1 0.410000 37.292999 17.688000 43.764073
172 1 0.410000 36.028000 19.725000 44.672074
173 2 -0.410000 29.781000 18.993999 35.585076
174 2 -0.410000 29.670000 20.191999 34.770073
175 1 0.410000 29.379999 18.381001 34.938073
176 1 0.410000 30.070000 20.804001 35.417073
177 2 -0.410000 39.209999 35.342999 37.150074
178 2 -0.410000 38.376999 36.417999 37.664074
179 1 0.410000 38.695999 35.183998 36.335076
180 1 0.410000 38.891998 36.577000 38.479073
181 2 -0.410000 35.881001 26.318001 37.284073
182 2 -0.410000 34.896999 27.205999 36.689072
183 1 0.410000 36.651001 26.655001 36.788075
184 1 0.410000 34.126999 26.868999 37.185074
185 2 -0.410000 19.110001 24.863001 44.552075
186 2 -0.410000 17.681000 24.849001 44.291073
187 1 0.410000 19.316000 24.023001 44.099076
188 1 0.410000 17.476000 25.688999 44.745076
189 2 -0.410000 18.878000 28.671000 36.475075
190 2 -0.410000 19.733999 27.507999 36.306073
191 1 0.410000 19.236000 29.183001 35.725075
192 1 0.410000 19.375999 26.996000 37.056073
193 2 -0.410000 22.250000 41.791000 44.380074
194 2 -0.410000 23.488001 41.231998 44.897072
195 1 0.410000 22.011000 42.294998 45.181073
196 1 0.410000 23.726000 40.729000 44.095074
197 2 -0.410000 18.462000 18.341999 48.338074
198 2 -0.410000 19.362000 17.207001 48.456074
199 1 0.410000 19.096001 18.944000 47.904072
200 1 0.410000 18.728001 16.606001 48.890072
201 3 0.000000 5.000000 5.000000 0.000000
202 3 0.000000 7.045000 7.045000 0.000000
203 3 0.000000 5.000000 7.045000 2.045000
204 3 0.000000 7.045000 5.000000 2.045000
205 3 0.000000 9.090000 5.000000 0.000000
206 3 0.000000 11.135000 7.045000 0.000000
207 3 0.000000 9.090000 7.045000 2.045000
208 3 0.000000 11.135000 5.000000 2.045000
209 3 0.000000 13.180000 5.000000 0.000000
210 3 0.000000 15.225000 7.045000 0.000000
211 3 0.000000 13.180000 7.045000 2.045000
212 3 0.000000 15.225000 5.000000 2.045000
213 3 0.000000 17.270000 5.000000 0.000000
214 3 0.000000 19.315000 7.045000 0.000000
215 3 0.000000 17.270000 7.045000 2.045000
216 3 0.000000 19.315000 5.000000 2.045000
217 3 0.000000 21.360000 5.000000 0.000000
218 3 0.000000 23.405000 7.045000 0.000000
219 3 0.000000 21.360000 7.045000 2.045000
220 3 0.000000 23.405000 5.000000 2.045000
221 3 0.000000 25.450000 5.000000 0.000000
222 3 0.000000 27.495000 7.045000 0.000000
223 3 0.000000 25.450000 7.045000 2.045000
224 3 0.000000 27.495000 5.000000 2.045000
225 3 0.000000 29.540000 5.000000 0.000000
226 3 0.000000 31.585000 7.045000 0.000000
227 3 0.000000 29.540000 7.045000 2.045000
228 3 0.000000 31.585000 5.000000 2.045000
229 3 0.000000 33.630000 5.000000 0.000000
230 3 0.000000 35.675000 7.045000 0.000000
231 3 0.000000 33.630000 7.045000 2.045000
232 3 0.000000 35.675000 5.000000 2.045000
233 3 0.000000 37.720000 5.000000 0.000000
234 3 0.000000 39.765000 7.045000 0.000000
235 3 0.000000 37.720000 7.045000 2.045000
236 3 0.000000 39.765000 5.000000 2.045000
237 3 0.000000 41.810000 5.000000 0.000000
238 3 0.000000 43.855000 7.045000 0.000000
239 3 0.000000 41.810000 7.045000 2.045000
240 3 0.000000 43.855000 5.000000 2.045000
241 3 0.000000 5.000000 9.090000 0.000000
242 3 0.000000 7.045000 11.135000 0.000000
243 3 0.000000 5.000000 11.135000 2.045000
244 3 0.000000 7.045000 9.090000 2.045000
245 3 0.000000 9.090000 9.090000 0.000000
246 3 0.000000 11.135000 11.135000 0.000000
247 3 0.000000 9.090000 11.135000 2.045000
248 3 0.000000 11.135000 9.090000 2.045000
249 3 0.000000 13.180000 9.090000 0.000000
250 3 0.000000 15.225000 11.135000 0.000000
251 3 0.000000 13.180000 11.135000 2.045000
252 3 0.000000 15.225000 9.090000 2.045000
253 3 0.000000 17.270000 9.090000 0.000000
254 3 0.000000 19.315000 11.135000 0.000000
255 3 0.000000 17.270000 11.135000 2.045000
256 3 0.000000 19.315000 9.090000 2.045000
257 3 0.000000 21.360000 9.090000 0.000000
258 3 0.000000 23.405000 11.135000 0.000000
259 3 0.000000 21.360000 11.135000 2.045000
260 3 0.000000 23.405000 9.090000 2.045000
261 3 0.000000 25.450000 9.090000 0.000000
262 3 0.000000 27.495000 11.135000 0.000000
263 3 0.000000 25.450000 11.135000 2.045000
264 3 0.000000 27.495000 9.090000 2.045000
265 3 0.000000 29.540000 9.090000 0.000000
266 3 0.000000 31.585000 11.135000 0.000000
267 3 0.000000 29.540000 11.135000 2.045000
268 3 0.000000 31.585000 9.090000 2.045000
269 3 0.000000 33.630000 9.090000 0.000000
270 3 0.000000 35.675000 11.135000 0.000000
271 3 0.000000 33.630000 11.135000 2.045000
272 3 0.000000 35.675000 9.090000 2.045000
273 3 0.000000 37.720000 9.090000 0.000000
274 3 0.000000 39.765000 11.135000 0.000000
275 3 0.000000 37.720000 11.135000 2.045000
276 3 0.000000 39.765000 9.090000 2.045000
277 3 0.000000 41.810000 9.090000 0.000000
278 3 0.000000 43.855000 11.135000 0.000000
279 3 0.000000 41.810000 11.135000 2.045000
280 3 0.000000 43.855000 9.090000 2.045000
281 3 0.000000 5.000000 13.180000 0.000000
282 3 0.000000 7.045000 15.225000 0.000000
283 3 0.000000 5.000000 15.225000 2.045000
284 3 0.000000 7.045000 13.180000 2.045000
285 3 0.000000 9.090000 13.180000 0.000000
286 3 0.000000 11.135000 15.225000 0.000000
287 3 0.000000 9.090000 15.225000 2.045000
288 3 0.000000 11.135000 13.180000 2.045000
289 3 0.000000 13.180000 13.180000 0.000000
290 3 0.000000 15.225000 15.225000 0.000000
291 3 0.000000 13.180000 15.225000 2.045000
292 3 0.000000 15.225000 13.180000 2.045000
293 3 0.000000 17.270000 13.180000 0.000000
294 3 0.000000 19.315000 15.225000 0.000000
295 3 0.000000 17.270000 15.225000 2.045000
296 3 0.000000 19.315000 13.180000 2.045000
297 3 0.000000 21.360000 13.180000 0.000000
298 3 0.000000 23.405000 15.225000 0.000000
299 3 0.000000 21.360000 15.225000 2.045000
300 3 0.000000 23.405000 13.180000 2.045000
301 3 0.000000 25.450000 13.180000 0.000000
302 3 0.000000 27.495000 15.225000 0.000000
303 3 0.000000 25.450000 15.225000 2.045000
304 3 0.000000 27.495000 13.180000 2.045000
305 3 0.000000 29.540000 13.180000 0.000000
306 3 0.000000 31.585000 15.225000 0.000000
307 3 0.000000 29.540000 15.225000 2.045000
308 3 0.000000 31.585000 13.180000 2.045000
309 3 0.000000 33.630000 13.180000 0.000000
310 3 0.000000 35.675000 15.225000 0.000000
311 3 0.000000 33.630000 15.225000 2.045000
312 3 0.000000 35.675000 13.180000 2.045000
313 3 0.000000 37.720000 13.180000 0.000000
314 3 0.000000 39.765000 15.225000 0.000000
315 3 0.000000 37.720000 15.225000 2.045000
316 3 0.000000 39.765000 13.180000 2.045000
317 3 0.000000 41.810000 13.180000 0.000000
318 3 0.000000 43.855000 15.225000 0.000000
319 3 0.000000 41.810000 15.225000 2.045000
320 3 0.000000 43.855000 13.180000 2.045000
321 3 0.000000 5.000000 17.270000 0.000000
322 3 0.000000 7.045000 19.315000 0.000000
323 3 0.000000 5.000000 19.315000 2.045000
324 3 0.000000 7.045000 17.270000 2.045000
325 3 0.000000 9.090000 17.270000 0.000000
326 3 0.000000 11.135000 19.315000 0.000000
327 3 0.000000 9.090000 19.315000 2.045000
328 3 0.000000 11.135000 17.270000 2.045000
329 3 0.000000 13.180000 17.270000 0.000000
330 3 0.000000 15.225000 19.315000 0.000000
331 3 0.000000 13.180000 19.315000 2.045000
332 3 0.000000 15.225000 17.270000 2.045000
333 3 0.000000 17.270000 17.270000 0.000000
334 3 0.000000 19.315000 19.315000 0.000000
335 3 0.000000 17.270000 19.315000 2.045000
336 3 0.000000 19.315000 17.270000 2.045000
337 3 0.000000 21.360000 17.270000 0.000000
338 3 0.000000 23.405000 19.315000 0.000000
339 3 0.000000 21.360000 19.315000 2.045000
340 3 0.000000 23.405000 17.270000 2.045000
341 3 0.000000 25.450000 17.270000 0.000000
342 3 0.000000 27.495000 19.315000 0.000000
343 3 0.000000 25.450000 19.315000 2.045000
344 3 0.000000 27.495000 17.270000 2.045000
345 3 0.000000 29.540000 17.270000 0.000000
346 3 0.000000 31.585000 19.315000 0.000000
347 3 0.000000 29.540000 19.315000 2.045000
348 3 0.000000 31.585000 17.270000 2.045000
349 3 0.000000 33.630000 17.270000 0.000000
350 3 0.000000 35.675000 19.315000 0.000000
351 3 0.000000 33.630000 19.315000 2.045000
352 3 0.000000 35.675000 17.270000 2.045000
353 3 0.000000 37.720000 17.270000 0.000000
354 3 0.000000 39.765000 19.315000 0.000000
355 3 0.000000 37.720000 19.315000 2.045000
356 3 0.000000 39.765000 17.270000 2.045000
357 3 0.000000 41.810000 17.270000 0.000000
358 3 0.000000 43.855000 19.315000 0.000000
359 3 0.000000 41.810000 19.315000 2.045000
360 3 0.000000 43.855000 17.270000 2.045000
361 3 0.000000 5.000000 21.360000 0.000000
362 3 0.000000 7.045000 23.405000 0.000000
363 3 0.000000 5.000000 23.405000 2.045000
364 3 0.000000 7.045000 21.360000 2.045000
365 3 0.000000 9.090000 21.360000 0.000000
366 3 0.000000 11.135000 23.405000 0.000000
367 3 0.000000 9.090000 23.405000 2.045000
368 3 0.000000 11.135000 21.360000 2.045000
369 3 0.000000 13.180000 21.360000 0.000000
370 3 0.000000 15.225000 23.405000 0.000000
371 3 0.000000 13.180000 23.405000 2.045000
372 3 0.000000 15.225000 21.360000 2.045000
373 3 0.000000 17.270000 21.360000 0.000000
374 3 0.000000 19.315000 23.405000 0.000000
375 3 0.000000 17.270000 23.405000 2.045000
376 3 0.000000 19.315000 21.360000 2.045000
377 3 0.000000 21.360000 21.360000 0.000000
378 3 0.000000 23.405000 23.405000 0.000000
379 3 0.000000 21.360000 23.405000 2.045000
380 3 0.000000 23.405000 21.360000 2.045000
381 3 0.000000 25.450000 21.360000 0.000000
382 3 0.000000 27.495000 23.405000 0.000000
383 3 0.000000 25.450000 23.405000 2.045000
384 3 0.000000 27.495000 21.360000 2.045000
385 3 0.000000 29.540000 21.360000 0.000000
386 3 0.000000 31.585000 23.405000 0.000000
387 3 0.000000 29.540000 23.405000 2.045000
388 3 0.000000 31.585000 21.360000 2.045000
389 3 0.000000 33.630000 21.360000 0.000000
390 3 0.000000 35.675000 23.405000 0.000000
391 3 0.000000 33.630000 23.405000 2.045000
392 3 0.000000 35.675000 21.360000 2.045000
393 3 0.000000 37.720000 21.360000 0.000000
394 3 0.000000 39.765000 23.405000 0.000000
395 3 0.000000 37.720000 23.405000 2.045000
396 3 0.000000 39.765000 21.360000 2.045000
397 3 0.000000 41.810000 21.360000 0.000000
398 3 0.000000 43.855000 23.405000 0.000000
399 3 0.000000 41.810000 23.405000 2.045000
400 3 0.000000 43.855000 21.360000 2.045000
401 3 0.000000 5.000000 25.450000 0.000000
402 3 0.000000 7.045000 27.495000 0.000000
403 3 0.000000 5.000000 27.495000 2.045000
404 3 0.000000 7.045000 25.450000 2.045000
405 3 0.000000 9.090000 25.450000 0.000000
406 3 0.000000 11.135000 27.495000 0.000000
407 3 0.000000 9.090000 27.495000 2.045000
408 3 0.000000 11.135000 25.450000 2.045000
409 3 0.000000 13.180000 25.450000 0.000000
410 3 0.000000 15.225000 27.495000 0.000000
411 3 0.000000 13.180000 27.495000 2.045000
412 3 0.000000 15.225000 25.450000 2.045000
413 3 0.000000 17.270000 25.450000 0.000000
414 3 0.000000 19.315000 27.495000 0.000000
415 3 0.000000 17.270000 27.495000 2.045000
416 3 0.000000 19.315000 25.450000 2.045000
417 3 0.000000 21.360000 25.450000 0.000000
418 3 0.000000 23.405000 27.495000 0.000000
419 3 0.000000 21.360000 27.495000 2.045000
420 3 0.000000 23.405000 25.450000 2.045000
421 3 0.000000 25.450000 25.450000 0.000000
422 3 0.000000 27.495000 27.495000 0.000000
423 3 0.000000 25.450000 27.495000 2.045000
424 3 0.000000 27.495000 25.450000 2.045000
425 3 0.000000 29.540000 25.450000 0.000000
426 3 0.000000 31.585000 27.495000 0.000000
427 3 0.000000 29.540000 27.495000 2.045000
428 3 0.000000 31.585000 25.450000 2.045000
429 3 0.000000 33.630000 25.450000 0.000000
430 3 0.000000 35.675000 27.495000 0.000000
431 3 0.000000 33.630000 27.495000 2.045000
432 3 0.000000 35.675000 25.450000 2.045000
433 3 0.000000 37.720000 25.450000 0.000000
434 3 0.000000 39.765000 27.495000 0.000000
435 3 0.000000 37.720000 27.495000 2.045000
436 3 0.000000 39.765000 25.450000 2.045000
437 3 0.000000 41.810000 25.450000 0.000000
438 3 0.000000 43.855000 27.495000 0.000000
439 3 0.000000 41.810000 27.495000 2.045000
440 3 0.000000 43.855000 25.450000 2.045000
441 3 0.000000 5.000000 29.540000 0.000000
442 3 0.000000 7.045000 31.585000 0.000000
443 3 0.000000 5.000000 31.585000 2.045000
444 3 0.000000 7.045000 29.540000 2.045000
445 3 0.000000 9.090000 29.540000 0.000000
446 3 0.000000 11.135000 31.585000 0.000000
447 3 0.000000 9.090000 31.585000 2.045000
448 3 0.000000 11.135000 29.540000 2.045000
449 3 0.000000 13.180000 29.540000 0.000000
450 3 0.000000 15.225000 31.585000 0.000000
451 3 0.000000 13.180000 31.585000 2.045000
452 3 0.000000 15.225000 29.540000 2.045000
453 3 0.000000 17.270000 29.540000 0.000000
454 3 0.000000 19.315000 31.585000 0.000000
455 3 0.000000 17.270000 31.585000 2.045000
456 3 0.000000 19.315000 29.540000 2.045000
457 3 0.000000 21.360000 29.540000 0.000000
458 3 0.000000 23.405000 31.585000 0.000000
459 3 0.000000 21.360000 31.585000 2.045000
460 3 0.000000 23.405000 29.540000 2.045000
461 3 0.000000 25.450000 29.540000 0.000000
462 3 0.000000 27.495000 31.585000 0.000000
463 3 0.000000 25.450000 31.585000 2.045000
464 3 0.000000 27.495000 29.540000 2.045000
465 3 0.000000 29.540000 29.540000 0.000000
466 3 0.000000 31.585000 31.585000 0.000000
467 3 0.000000 29.540000 31.585000 2.045000
468 3 0.000000 31.585000 29.540000 2.045000
469 3 0.000000 33.630000 29.540000 0.000000
470 3 0.000000 35.675000 31.585000 0.000000
471 3 0.000000 33.630000 31.585000 2.045000
472 3 0.000000 35.675000 29.540000 2.045000
473 3 0.000000 37.720000 29.540000 0.000000
474 3 0.000000 39.765000 31.585000 0.000000
475 3 0.000000 37.720000 31.585000 2.045000
476 3 0.000000 39.765000 29.540000 2.045000
477 3 0.000000 41.810000 29.540000 0.000000
478 3 0.000000 43.855000 31.585000 0.000000
479 3 0.000000 41.810000 31.585000 2.045000
480 3 0.000000 43.855000 29.540000 2.045000
481 3 0.000000 5.000000 33.630000 0.000000
482 3 0.000000 7.045000 35.675000 0.000000
483 3 0.000000 5.000000 35.675000 2.045000
484 3 0.000000 7.045000 33.630000 2.045000
485 3 0.000000 9.090000 33.630000 0.000000
486 3 0.000000 11.135000 35.675000 0.000000
487 3 0.000000 9.090000 35.675000 2.045000
488 3 0.000000 11.135000 33.630000 2.045000
489 3 0.000000 13.180000 33.630000 0.000000
490 3 0.000000 15.225000 35.675000 0.000000
491 3 0.000000 13.180000 35.675000 2.045000
492 3 0.000000 15.225000 33.630000 2.045000
493 3 0.000000 17.270000 33.630000 0.000000
494 3 0.000000 19.315000 35.675000 0.000000
495 3 0.000000 17.270000 35.675000 2.045000
496 3 0.000000 19.315000 33.630000 2.045000
497 3 0.000000 21.360000 33.630000 0.000000
498 3 0.000000 23.405000 35.675000 0.000000
499 3 0.000000 21.360000 35.675000 2.045000
500 3 0.000000 23.405000 33.630000 2.045000
501 3 0.000000 25.450000 33.630000 0.000000
502 3 0.000000 27.495000 35.675000 0.000000
503 3 0.000000 25.450000 35.675000 2.045000
504 3 0.000000 27.495000 33.630000 2.045000
505 3 0.000000 29.540000 33.630000 0.000000
506 3 0.000000 31.585000 35.675000 0.000000
507 3 0.000000 29.540000 35.675000 2.045000
508 3 0.000000 31.585000 33.630000 2.045000
509 3 0.000000 33.630000 33.630000 0.000000
510 3 0.000000 35.675000 35.675000 0.000000
511 3 0.000000 33.630000 35.675000 2.045000
512 3 0.000000 35.675000 33.630000 2.045000
513 3 0.000000 37.720000 33.630000 0.000000
514 3 0.000000 39.765000 35.675000 0.000000
515 3 0.000000 37.720000 35.675000 2.045000
516 3 0.000000 39.765000 33.630000 2.045000
517 3 0.000000 41.810000 33.630000 0.000000
518 3 0.000000 43.855000 35.675000 0.000000
519 3 0.000000 41.810000 35.675000 2.045000
520 3 0.000000 43.855000 33.630000 2.045000
521 3 0.000000 5.000000 37.720000 0.000000
522 3 0.000000 7.045000 39.765000 0.000000
523 3 0.000000 5.000000 39.765000 2.045000
524 3 0.000000 7.045000 37.720000 2.045000
525 3 0.000000 9.090000 37.720000 0.000000
526 3 0.000000 11.135000 39.765000 0.000000
527 3 0.000000 9.090000 39.765000 2.045000
528 3 0.000000 11.135000 37.720000 2.045000
529 3 0.000000 13.180000 37.720000 0.000000
530 3 0.000000 15.225000 39.765000 0.000000
531 3 0.000000 13.180000 39.765000 2.045000
532 3 0.000000 15.225000 37.720000 2.045000
533 3 0.000000 17.270000 37.720000 0.000000
534 3 0.000000 19.315000 39.765000 0.000000
535 3 0.000000 17.270000 39.765000 2.045000
536 3 0.000000 19.315000 37.720000 2.045000
537 3 0.000000 21.360000 37.720000 0.000000
538 3 0.000000 23.405000 39.765000 0.000000
539 3 0.000000 21.360000 39.765000 2.045000
540 3 0.000000 23.405000 37.720000 2.045000
541 3 0.000000 25.450000 37.720000 0.000000
542 3 0.000000 27.495000 39.765000 0.000000
543 3 0.000000 25.450000 39.765000 2.045000
544 3 0.000000 27.495000 37.720000 2.045000
545 3 0.000000 29.540000 37.720000 0.000000
546 3 0.000000 31.585000 39.765000 0.000000
547 3 0.000000 29.540000 39.765000 2.045000
548 3 0.000000 31.585000 37.720000 2.045000
549 3 0.000000 33.630000 37.720000 0.000000
550 3 0.000000 35.675000 39.765000 0.000000
551 3 0.000000 33.630000 39.765000 2.045000
552 3 0.000000 35.675000 37.720000 2.045000
553 3 0.000000 37.720000 37.720000 0.000000
554 3 0.000000 39.765000 39.765000 0.000000
555 3 0.000000 37.720000 39.765000 2.045000
556 3 0.000000 39.765000 37.720000 2.045000
557 3 0.000000 41.810000 37.720000 0.000000
558 3 0.000000 43.855000 39.765000 0.000000
559 3 0.000000 41.810000 39.765000 2.045000
560 3 0.000000 43.855000 37.720000 2.045000
561 3 0.000000 5.000000 41.810000 0.000000
562 3 0.000000 7.045000 43.855000 0.000000
563 3 0.000000 5.000000 43.855000 2.045000
564 3 0.000000 7.045000 41.810000 2.045000
565 3 0.000000 9.090000 41.810000 0.000000
566 3 0.000000 11.135000 43.855000 0.000000
567 3 0.000000 9.090000 43.855000 2.045000
568 3 0.000000 11.135000 41.810000 2.045000
569 3 0.000000 13.180000 41.810000 0.000000
570 3 0.000000 15.225000 43.855000 0.000000
571 3 0.000000 13.180000 43.855000 2.045000
572 3 0.000000 15.225000 41.810000 2.045000
573 3 0.000000 17.270000 41.810000 0.000000
574 3 0.000000 19.315000 43.855000 0.000000
575 3 0.000000 17.270000 43.855000 2.045000
576 3 0.000000 19.315000 41.810000 2.045000
577 3 0.000000 21.360000 41.810000 0.000000
578 3 0.000000 23.405000 43.855000 0.000000
579 3 0.000000 21.360000 43.855000 2.045000
580 3 0.000000 23.405000 41.810000 2.045000
581 3 0.000000 25.450000 41.810000 0.000000
582 3 0.000000 27.495000 43.855000 0.000000
583 3 0.000000 25.450000 43.855000 2.045000
584 3 0.000000 27.495000 41.810000 2.045000
585 3 0.000000 29.540000 41.810000 0.000000
586 3 0.000000 31.585000 43.855000 0.000000
587 3 0.000000 29.540000 43.855000 2.045000
588 3 0.000000 31.585000 41.810000 2.045000
589 3 0.000000 33.630000 41.810000 0.000000
590 3 0.000000 35.675000 43.855000 0.000000
591 3 0.000000 33.630000 43.855000 2.045000
592 3 0.000000 35.675000 41.810000 2.045000
593 3 0.000000 37.720000 41.810000 0.000000
594 3 0.000000 39.765000 43.855000 0.000000
595 3 0.000000 37.720000 43.855000 2.045000
596 3 0.000000 39.765000 41.810000 2.045000
597 3 0.000000 41.810000 41.810000 0.000000
598 3 0.000000 43.855000 43.855000 0.000000
599 3 0.000000 41.810000 43.855000 2.045000
600 3 0.000000 43.855000 41.810000 2.045000
601 3 0.000000 5.000000 5.000000 4.090000
602 3 0.000000 7.045000 7.045000 4.090000
603 3 0.000000 8.012684 9.803761 6.625886
604 3 0.000000 6.723105 5.271871 6.193933
605 3 0.000000 9.090000 5.000000 4.090000
606 3 0.000000 11.135000 7.045000 4.090000
607 3 0.000000 8.540484 7.056795 7.036350
608 3 0.000000 10.797463 4.775645 6.443789
609 3 0.000000 13.180000 5.000000 4.090000
610 3 0.000000 15.225000 7.045000 4.090000
611 3 0.000000 13.092763 6.981258 6.251485
612 3 0.000000 15.081796 5.051202 6.424170
613 3 0.000000 17.270000 5.000000 4.090000
614 3 0.000000 19.315000 7.045000 4.090000
615 3 0.000000 17.155223 6.823163 6.288468
616 3 0.000000 21.349035 6.975482 6.465285
617 3 0.000000 21.360000 5.000000 4.090000
618 3 0.000000 23.405000 7.045000 4.090000
619 3 0.000000 23.313492 10.966193 9.175250
620 3 0.000000 23.886314 4.809908 7.063358
621 3 0.000000 25.450000 5.000000 4.090000
622 3 0.000000 27.495000 7.045000 4.090000
623 3 0.000000 27.268904 5.034938 6.122405
624 3 0.000000 29.003611 11.651751 12.133555
625 3 0.000000 29.540000 5.000000 4.090000
626 3 0.000000 31.585000 7.045000 4.090000
627 3 0.000000 31.181162 5.242329 6.511712
628 3 0.000000 28.285203 41.786694 10.077131
629 3 0.000000 33.630000 5.000000 4.090000
630 3 0.000000 35.675000 7.045000 4.090000
631 3 0.000000 35.593706 9.248944 6.349866
632 3 0.000000 36.185916 4.734364 6.495105
633 3 0.000000 37.720000 5.000000 4.090000
634 3 0.000000 39.765000 7.045000 4.090000
635 3 0.000000 40.231968 9.029434 6.414365
636 3 0.000000 41.305366 7.217133 8.064843
637 3 0.000000 41.810000 5.000000 4.090000
638 3 0.000000 43.855000 7.045000 4.090000
639 3 0.000000 43.602236 8.597317 6.391505
640 3 0.000000 44.730632 5.571412 6.791968
641 3 0.000000 5.000000 9.090000 4.090000
642 3 0.000000 7.045000 11.135000 4.090000
643 3 0.000000 5.071215 10.746258 6.169456
644 3 0.000000 10.602035 10.182282 8.880152
645 3 0.000000 9.090000 9.090000 4.090000
646 3 0.000000 11.135000 11.135000 4.090000
647 3 0.000000 10.036922 12.337475 6.942559
648 3 0.000000 11.342869 9.034458 6.399258
649 3 0.000000 13.180000 9.090000 4.090000
650 3 0.000000 15.225000 11.135000 4.090000
651 3 0.000000 13.043878 11.352936 6.530044
652 3 0.000000 15.257805 9.173596 6.073561
653 3 0.000000 17.270000 9.090000 4.090000
654 3 0.000000 19.315000 11.135000 4.090000
655 3 0.000000 16.871194 11.884702 6.571611
656 3 0.000000 20.977370 9.523887 8.704821
657 3 0.000000 21.360000 9.090000 4.090000
658 3 0.000000 23.405000 11.135000 4.090000
659 3 0.000000 19.503077 13.115436 6.347229
660 3 0.000000 25.791343 10.603864 6.267897
661 3 0.000000 25.450000 9.090000 4.090000
662 3 0.000000 27.495000 11.135000 4.090000
663 3 0.000000 21.358192 11.101971 6.435353
664 3 0.000000 29.518469 7.163480 6.091566
665 3 0.000000 29.540000 9.090000 4.090000
666 3 0.000000 31.585000 11.135000 4.090000
667 3 0.000000 29.770717 11.651788 9.413539
668 3 0.000000 31.782664 9.029612 5.845014
669 3 0.000000 33.630000 9.090000 4.090000
670 3 0.000000 35.675000 11.135000 4.090000
671 3 0.000000 33.730087 11.551135 6.186249
672 3 0.000000 37.468798 7.052156 6.513653
673 3 0.000000 37.720000 9.090000 4.090000
674 3 0.000000 39.765000 11.135000 4.090000
675 3 0.000000 35.605776 13.282460 6.198517
676 3 0.000000 37.548323 11.095757 6.332256