LAMMPS data file
 2200 atoms
 3 atom types
 3.97750 44.87750  xlo xhi
 3.97750 44.87750  ylo yhi
 -2.00000 62.00000  zlo zhi

# Pair Coeffs
# 1  H-h2o2
# 2  O-h2o2
# 3  Ag

 Masses

 1 1.007940 # H
 2 15.999400 # O
 3 107.868200 # Ag

 Atoms # charge

1 2 -0.410000 9.476000 39.588001 40.132046
2 2 -0.410000 8.033000 39.428001 40.206047
3 1 0.410000 9.667000 39.305000 41.046047
4 1 0.410000 7.843000 39.712002 39.291046
5 2 -0.410000 23.820000 17.299000 32.947048
6 2 -0.410000 24.783001 18.268000 33.443047
7 1 0.410000 23.046000 17.655001 33.426048
8 1 0.410000 25.555000 17.912001 32.965046
9 2 -0.410000 38.146999 24.177000 43.860047
10 2 -0.410000 39.179001 23.215000 43.511047
11 1 0.410000 37.391998 23.658001 43.523049
12 1 0.410000 39.933998 23.733999 43.848045
13 2 -0.410000 29.021999 15.439000 37.282047
14 2 -0.410000 28.393999 16.506001 38.043045
15 1 0.410000 28.569000 14.700000 37.731049
16 1 0.410000 28.847000 17.245001 37.594048
17 2 -0.410000 22.908001 19.539000 28.239048
18 2 -0.410000 23.848000 19.704000 29.335049
19 1 0.410000 22.393000 18.813999 28.641049
20 1 0.410000 24.363001 20.429001 28.932045
21 2 -0.410000 8.805000 38.313000 46.227047
22 2 -0.410000 9.547000 39.529999 45.947048
23 1 0.410000 8.044000 38.742001 46.662048
24 1 0.410000 10.307000 39.099998 45.512047
25 2 -0.410000 38.266998 28.704000 38.003048
26 2 -0.410000 38.050999 27.362000 38.518047
27 1 0.410000 38.113998 29.173000 38.846047
28 1 0.410000 38.202999 26.893999 37.675045
29 2 -0.410000 36.210999 22.607000 45.202046
30 2 -0.410000 36.646999 21.238001 44.983048
31 1 0.410000 35.441002 22.577000 44.603047
32 1 0.410000 37.417000 21.268999 45.583046
33 2 -0.410000 40.735001 19.934999 26.850048
34 2 -0.410000 39.938000 20.337999 25.704048
35 1 0.410000 40.188000 20.375999 27.528046
36 1 0.410000 40.487000 19.896999 25.027046
37 2 -0.410000 32.153999 30.260000 29.798046
38 2 -0.410000 31.841999 30.645000 31.164047
39 1 0.410000 32.627998 31.079000 29.556046
40 1 0.410000 31.368000 29.826000 31.405048
41 2 -0.410000 39.681999 9.673000 26.569046
42 2 -0.410000 40.589001 9.185000 27.593048
43 1 0.410000 38.863998 9.596000 27.097046
44 1 0.410000 41.405998 9.262000 27.065048
45 2 -0.410000 23.724001 28.577999 40.341046
46 2 -0.410000 25.127001 28.954000 40.279045
47 1 0.410000 23.870001 27.617001 40.432045
48 1 0.410000 24.980000 29.915001 40.188046
49 2 -0.410000 17.603001 19.106001 33.570046
50 2 -0.410000 18.493000 18.330000 32.722046
51 1 0.410000 16.941000 18.402000 33.710049
52 1 0.410000 19.155001 19.034000 32.582047
53 2 -0.410000 20.990999 13.436000 44.285046
54 2 -0.410000 22.268999 14.127000 44.273049
55 1 0.410000 20.434999 14.230000 44.406048
56 1 0.410000 22.823999 13.333000 44.152046
57 2 -0.410000 15.404000 25.905001 32.251045
58 2 -0.410000 16.513000 26.722000 31.787048
59 1 0.410000 15.904000 25.412001 32.930046
60 1 0.410000 16.011999 27.214001 31.109047
61 2 -0.410000 33.889999 35.210999 43.895046
62 2 -0.410000 34.223999 36.609001 44.111046
63 1 0.410000 33.007999 35.366001 43.505047
64 1 0.410000 35.105000 36.453999 44.502049
65 2 -0.410000 33.265999 29.301001 36.522045
66 2 -0.410000 33.627998 30.621000 36.032047
67 1 0.410000 34.148998 29.061001 36.861046
68 1 0.410000 32.743999 30.860001 35.693047
69 2 -0.410000 29.872999 10.639000 32.613049
70 2 -0.410000 28.583000 10.349000 33.215046
71 1 0.410000 29.538000 10.831000 31.716046
72 1 0.410000 28.919001 10.157000 34.111046
73 2 -0.410000 9.641000 6.963000 39.671047
74 2 -0.410000 9.659000 8.183000 40.459046
75 1 0.410000 10.575000 6.719000 39.819046
76 1 0.410000 8.725000 8.426000 40.310047
77 2 -0.410000 22.565001 16.115999 38.212048
78 2 -0.410000 21.528000 15.596000 37.336048
79 1 0.410000 22.385000 17.062000 38.050045
80 1 0.410000 21.709000 14.651000 37.498047
81 2 -0.410000 27.431999 15.700000 31.629048
82 2 -0.410000 27.441000 14.590000 32.568047
83 1 0.410000 26.500000 15.956000 31.769047
84 1 0.410000 28.372999 14.335000 32.428047
85 2 -0.410000 22.235001 21.785000 35.521046
86 2 -0.410000 22.888000 20.524000 35.829048
87 1 0.410000 22.906000 22.363001 35.933048
88 1 0.410000 22.216999 19.948000 35.417046
89 2 -0.410000 5.963000 35.132999 31.416046
90 2 -0.410000 5.392000 36.469002 31.444046
91 1 0.410000 5.129000 34.651001 31.574047
92 1 0.410000 6.226000 36.950001 31.286045
93 2 -0.410000 24.315001 16.090000 43.782047
94 2 -0.410000 25.490999 15.684000 44.532047
95 1 0.410000 24.270000 15.302000 43.208046
96 1 0.410000 25.535000 16.473000 45.105045
97 2 -0.410000 9.398000 39.806999 31.334046
98 2 -0.410000 10.769000 39.675999 30.869045
99 1 0.410000 9.243000 38.855999 31.494045
100 1 0.410000 10.924000 40.626999 30.709046
101 2 -0.410000 33.300999 7.665000 38.287048
102 2 -0.410000 33.973000 7.143000 37.109047
103 1 0.410000 32.477001 7.932000 37.837048
104 1 0.410000 34.797001 6.877000 37.560047
105 2 -0.410000 29.551001 31.787001 41.462048
106 2 -0.410000 30.809000 32.507000 41.567047
107 1 0.410000 29.028999 32.528000 41.097046
108 1 0.410000 31.330000 31.766001 41.932045
109 2 -0.410000 27.159000 25.893000 26.172047
110 2 -0.410000 27.382999 24.704000 26.977047
111 1 0.410000 27.188000 26.534000 26.908047
112 1 0.410000 27.354000 24.063999 26.240048
113 2 -0.410000 25.371000 17.830999 27.149048
114 2 -0.410000 24.239000 18.368999 26.414047
115 1 0.410000 25.054001 16.909000 27.185047
116 1 0.410000 24.556999 19.291000 26.379048
117 2 -0.410000 37.915001 22.988001 36.243046
118 2 -0.410000 36.978001 24.069000 36.501045
119 1 0.410000 38.723000 23.535000 36.252049
120 1 0.410000 36.169998 23.520000 36.492046
121 2 -0.410000 8.495000 27.589001 38.923046
122 2 -0.410000 7.378000 28.392000 38.453049
123 1 0.410000 8.950000 28.302999 39.409046
124 1 0.410000 6.924000 27.677999 37.967049
125 2 -0.410000 23.315001 37.811001 45.037048
126 2 -0.410000 23.438000 36.911999 46.172047
127 1 0.410000 22.598000 37.326000 44.586048
128 1 0.410000 24.156000 37.398998 46.621048
129 2 -0.410000 35.856998 33.528000 29.707047
130 2 -0.410000 36.514000 34.535000 28.890045
131 1 0.410000 36.658001 33.223999 30.175045
132 1 0.410000 35.713001 34.838001 28.421047
133 2 -0.410000 38.365002 39.233002 38.091046
134 2 -0.410000 38.863998 38.073002 37.372048
135 1 0.410000 38.953999 39.146999 38.865048
136 1 0.410000 38.275002 38.160000 36.598045
137 2 -0.410000 21.648001 19.767000 45.114048
138 2 -0.410000 21.099001 18.424999 45.020046
139 1 0.410000 20.820000 20.242001 44.909046
140 1 0.410000 21.927999 17.951000 45.225048
141 2 -0.410000 28.829000 10.710000 29.512047
142 2 -0.410000 27.816000 11.751000 29.563046
143 1 0.410000 28.229000 9.961000 29.697048
144 1 0.410000 28.416000 12.499000 29.378048
145 2 -0.410000 33.737999 11.156000 29.331047
146 2 -0.410000 32.771000 12.217000 29.106049
147 1 0.410000 33.396999 10.877000 30.203049
148 1 0.410000 33.112000 12.495000 28.234047
149 2 -0.410000 21.486000 24.635000 44.443047
150 2 -0.410000 20.913000 23.337999 44.122048
151 1 0.410000 22.028000 24.721001 43.635048
152 1 0.410000 20.371000 23.254000 44.930046
153 2 -0.410000 27.910000 6.768000 26.911045
154 2 -0.410000 29.129999 6.154000 26.413048
155 1 0.410000 27.566999 5.978000 27.371048
156 1 0.410000 29.473000 6.945000 25.953049
157 2 -0.410000 22.731001 21.598000 43.142048
158 2 -0.410000 22.871000 21.945000 41.738049
159 1 0.410000 22.386999 20.695000 43.001045
160 1 0.410000 23.215000 22.847000 41.880047
161 2 -0.410000 36.432999 10.617000 33.343048
162 2 -0.410000 37.352001 10.826000 34.450047
163 1 0.410000 36.214001 11.558000 33.200047
164 1 0.410000 37.570000 9.885000 34.592049
165 2 -0.410000 38.084000 32.120998 36.357048
166 2 -0.410000 38.519001 32.627998 37.648049
167 1 0.410000 37.464001 31.450001 36.703049
168 1 0.410000 39.138000 33.298000 37.301048
169 2 -0.410000 36.662998 18.013000 36.553047
170 2 -0.410000 36.658001 19.400000 36.119045
171 1 0.410000 37.292999 17.688000 35.882046
172 1 0.410000 36.028000 19.725000 36.790047
173 2 -0.410000 29.781000 18.993999 27.703049
174 2 -0.410000 29.670000 20.191999 26.888046
175 1 0.410000 29.379999 18.381001 27.056046
176 1 0.410000 30.070000 20.804001 27.535046
177 2 -0.410000 39.209999 35.342999 29.268047
178 2 -0.410000 38.376999 36.417999 29.782047
179 1 0.410000 38.695999 35.183998 28.453049
180 1 0.410000 38.891998 36.577000 30.597046
181 2 -0.410000 35.881001 26.318001 29.402046
182 2 -0.410000 34.896999 27.205999 28.807045
183 1 0.410000 36.651001 26.655001 28.906048
184 1 0.410000 34.126999 26.868999 29.303047
185 2 -0.410000 19.110001 24.863001 36.670048
186 2 -0.410000 17.681000 24.849001 36.409046
187 1 0.410000 19.316000 24.023001 36.217049
188 1 0.410000 17.476000 25.688999 36.863049
189 2 -0.410000 18.878000 28.671000 28.593048
190 2 -0.410000 19.733999 27.507999 28.424046
191 1 0.410000 19.236000 29.183001 27.843048
192 1 0.410000 19.375999 26.996000 29.174046
193 2 -0.410000 22.250000 41.791000 36.498047
194 2 -0.410000 23.488001 41.231998 37.015045
195 1 0.410000 22.011000 42.294998 37.299046
196 1 0.410000 23.726000 40.729000 36.213047
197 2 -0.410000 18.462000 18.341999 40.456047
198 2 -0.410000 19.362000 17.207001 40.574047
199 1 0.410000 19.096001 18.944000 40.022045
200 1 0.410000 18.728001 16.606001 41.008045
201 3 0.000000 5.000000 5.000000 0.000000
202 3 0.000000 7.045000 7.045000 0.000000
203 3 0.000000 5.000000 7.045000 2.045000
204 3 0.000000 7.045000 5.000000 2.045000
205 3 0.000000 9.090000 5.000000 0.000000
206 3 0.000000 11.135000 7.045000 0.000000
207 3 0.000000 9.090000 7.045000 2.045000
208 3 0.000000 11.135000 5.000000 2.045000
209 3 0.000000 13.180000 5.000000 0.000000
210 3 0.000000 15.225000 7.045000 0.000000
211 3 0.000000 13.180000 7.045000 2.045000
212 3 0.000000 15.225000 5.000000 2.045000
213 3 0.000000 17.270000 5.000000 0.000000
214 3 0.000000 19.315000 7.045000 0.000000
215 3 0.000000 17.270000 7.045000 2.045000
216 3 0.000000 19.315000 5.000000 2.045000
217 3 0.000000 21.360000 5.000000 0.000000
218 3 0.000000 23.405000 7.045000 0.000000
219 3 0.000000 21.360000 7.045000 2.045000
220 3 0.000000 23.405000 5.000000 2.045000
221 3 0.000000 25.450000 5.000000 0.000000
222 3 0.000000 27.495000 7.045000 0.000000
223 3 0.000000 25.450000 7.045000 2.045000
224 3 0.000000 27.495000 5.000000 2.045000
225 3 0.000000 29.540000 5.000000 0.000000
226 3 0.000000 31.585000 7.045000 0.000000
227 3 0.000000 29.540000 7.045000 2.045000
228 3 0.000000 31.585000 5.000000 2.045000
229 3 0.000000 33.630000 5.000000 0.000000
230 3 0.000000 35.675000 7.045000 0.000000
231 3 0.000000 33.630000 7.045000 2.045000
232 3 0.000000 35.675000 5.000000 2.045000
233 3 0.000000 37.720000 5.000000 0.000000
234 3 0.000000 39.765000 7.045000 0.000000
235 3 0.000000 37.720000 7.045000 2.045000
236 3 0.000000 39.765000 5.000000 2.045000
237 3 0.000000 41.810000 5.000000 0.000000
238 3 0.000000 43.855000 7.045000 0.000000
239 3 0.000000 41.810000 7.045000 2.045000
240 3 0.000000 43.855000 5.000000 2.045000
241 3 0.000000 5.000000 9.090000 0.000000
242 3 0.000000 7.045000 11.135000 0.000000
243 3 0.000000 5.000000 11.135000 2.045000
244 3 0.000000 7.045000 9.090000 2.045000
245 3 0.000000 9.090000 9.090000 0.000000
246 3 0.000000 11.135000 11.135000 0.000000
247 3 0.000000 9.090000 11.135000 2.045000
248 3 0.000000 11.135000 9.090000 2.045000
249 3 0.000000 13.180000 9.090000 0.000000
250 3 0.000000 15.225000 11.135000 0.000000
251 3 0.000000 13.180000 11.135000 2.045000
252 3 0.000000 15.225000 9.090000 2.045000
253 3 0.000000 17.270000 9.090000 0.000000
254 3 0.000000 19.315000 11.135000 0.000000
255 3 0.000000 17.270000 11.135000 2.045000
256 3 0.000000 19.315000 9.090000 2.045000
257 3 0.000000 21.360000 9.090000 0.000000
258 3 0.000000 23.405000 11.135000 0.000000
259 3 0.000000 21.360000 11.135000 2.045000
260 3 0.000000 23.405000 9.090000 2.045000
261 3 0.000000 25.450000 9.090000 0.000000
262 3 0.000000 27.495000 11.135000 0.000000
263 3 0.000000 25.450000 11.135000 2.045000
264 3 0.000000 27.495000 9.090000 2.045000
265 3 0.000000 29.540000 9.090000 0.000000
266 3 0.000000 31.585000 11.135000 0.000000
267 3 0.000000 29.540000 11.135000 2.045000
268 3 0.000000 31.585000 9.090000 2.045000
269 3 0.000000 33.630000 9.090000 0.000000
270 3 0.000000 35.675000 11.135000 0.000000
271 3 0.000000 33.630000 11.135000 2.045000
272 3 0.000000 35.675000 9.090000 2.045000
273 3 0.000000 37.720000 9.090000 0.000000
274 3 0.000000 39.765000 11.135000 0.000000
275 3 0.000000 37.720000 11.135000 2.045000
276 3 0.000000 39.765000 9.090000 2.045000
277 3 0.000000 41.810000 9.090000 0.000000
278 3 0.000000 43.855000 11.135000 0.000000
279 3 0.000000 41.810000 11.135000 2.045000
280 3 0.000000 43.855000 9.090000 2.045000
281 3 0.000000 5.000000 13.180000 0.000000
282 3 0.000000 7.045000 15.225000 0.000000
283 3 0.000000 5.000000 15.225000 2.045000
284 3 0.000000 7.045000 13.180000 2.045000
285 3 0.000000 9.090000 13.180000 0.000000
286 3 0.000000 11.135000 15.225000 0.000000
287 3 0.000000 9.090000 15.225000 2.045000
288 3 0.000000 11.135000 13.180000 2.045000
289 3 0.000000 13.180000 13.180000 0.000000
290 3 0.000000 15.225000 15.225000 0.000000
291 3 0.000000 13.180000 15.225000 2.045000
292 3 0.000000 15.225000 13.180000 2.045000
293 3 0.000000 17.270000 13.180000 0.000000
294 3 0.000000 19.315000 15.225000 0.000000
295 3 0.000000 17.270000 15.225000 2.045000
296 3 0.000000 19.315000 13.180000 2.045000
297 3 0.000000 21.360000 13.180000 0.000000
298 3 0.000000 23.405000 15.225000 0.000000
299 3 0.000000 21.360000 15.225000 2.045000
300 3 0.000000 23.405000 13.180000 2.045000
301 3 0.000000 25.450000 13.180000 0.000000
302 3 0.000000 27.495000 15.225000 0.000000
303 3 0.000000 25.450000 15.225000 2.045000
304 3 0.000000 27.495000 13.180000 2.045000
305 3 0.000000 29.540000 13.180000 0.000000
306 3 0.000000 31.585000 15.225000 0.000000
307 3 0.000000 29.540000 15.225000 2.045000
308 3 0.000000 31.585000 13.180000 2.045000
309 3 0.000000 33.630000 13.180000 0.000000
310 3 0.000000 35.675000 15.225000 0.000000
311 3 0.000000 33.630000 15.225000 2.045000
312 3 0.000000 35.675000 13.180000 2.045000
313 3 0.000000 37.720000 13.180000 0.000000
314 3 0.000000 39.765000 15.225000 0.000000
315 3 0.000000 37.720000 15.225000 2.045000
316 3 0.000000 39.765000 13.180000 2.045000
317 3 0.000000 41.810000 13.180000 0.000000
318 3 0.000000 43.855000 15.225000 0.000000
319 3 0.000000 41.810000 15.225000 2.045000
320 3 0.000000 43.855000 13.180000 2.045000
321 3 0.000000 5.000000 17.270000 0.000000
322 3 0.000000 7.045000 19.315000 0.000000
323 3 0.000000 5.000000 19.315000 2.045000
324 3 0.000000 7.045000 17.270000 2.045000
325 3 0.000000 9.090000 17.270000 0.000000
326 3 0.000000 11.135000 19.315000 0.000000
327 3 0.000000 9.090000 19.315000 2.045000
328 3 0.000000 11.135000 17.270000 2.045000
329 3 0.000000 13.180000 17.270000 0.000000
330 3 0.000000 15.225000 19.315000 0.000000
331 3 0.000000 13.180000 19.315000 2.045000
332 3 0.000000 15.225000 17.270000 2.045000
333 3 0.000000 17.270000 17.270000 0.000000
334 3 0.000000 19.315000 19.315000 0.000000
335 3 0.000000 17.270000 19.315000 2.045000
336 3 0.000000 19.315000 17.270000 2.045000
337 3 0.000000 21.360000 17.270000 0.000000
338 3 0.000000 23.405000 19.315000 0.000000
339 3 0.000000 21.360000 19.315000 2.045000
340 3 0.000000 23.405000 17.270000 2.045000
341 3 0.000000 25.450000 17.270000 0.000000
342 3 0.000000 27.495000 19.315000 0.000000
343 3 0.000000 25.450000 19.315000 2.045000
344 3 0.000000 27.495000 17.270000 2.045000
345 3 0.000000 29.540000 17.270000 0.000000
346 3 0.000000 31.585000 19.315000 0.000000
347 3 0.000000 29.540000 19.315000 2.045000
348 3 0.000000 31.585000 17.270000 2.045000
349 3 0.000000 33.630000 17.270000 0.000000
350 3 0.000000 35.675000 19.315000 0.000000
351 3 0.000000 33.630000 19.315000 2.045000
352 3 0.000000 35.675000 17.270000 2.045000
353 3 0.000000 37.720000 17.270000 0.000000
354 3 0.000000 39.765000 19.315000 0.000000
355 3 0.000000 37.720000 19.315000 2.045000
356 3 0.000000 39.765000 17.270000 2.045000
357 3 0.000000 41.810000 17.270000 0.000000
358 3 0.000000 43.855000 19.315000 0.000000
359 3 0.000000 41.810000 19.315000 2.045000
360 3 0.000000 43.855000 17.270000 2.045000
361 3 0.000000 5.000000 21.360000 0.000000
362 3 0.000000 7.045000 23.405000 0.000000
363 3 0.000000 5.000000 23.405000 2.045000
364 3 0.000000 7.045000 21.360000 2.045000
365 3 0.000000 9.090000 21.360000 0.000000
366 3 0.000000 11.135000 23.405000 0.000000
367 3 0.000000 9.090000 23.405000 2.045000
368 3 0.000000 11.135000 21.360000 2.045000
369 3 0.000000 13.180000 21.360000 0.000000
370 3 0.000000 15.225000 23.405000 0.000000
371 3 0.000000 13.180000 23.405000 2.045000
372 3 0.000000 15.225000 21.360000 2.045000
373 3 0.000000 17.270000 21.360000 0.000000
374 3 0.000000 19.315000 23.405000 0.000000
375 3 0.000000 17.270000 23.405000 2.045000
376 3 0.000000 19.315000 21.360000 2.045000
377 3 0.000000 21.360000 21.360000 0.000000
378 3 0.000000 23.405000 23.405000 0.000000
379 3 0.000000 21.360000 23.405000 2.045000
380 3 0.000000 23.405000 21.360000 2.045000
381 3 0.000000 25.450000 21.360000 0.000000
382 3 0.000000 27.495000 23.405000 0.000000
383 3 0.000000 25.450000 23.405000 2.045000
384 3 0.000000 27.495000 21.360000 2.045000
385 3 0.000000 29.540000 21.360000 0.000000
386 3 0.000000 31.585000 23.405000 0.000000
387 3 0.000000 29.540000 23.405000 2.045000
388 3 0.000000 31.585000 21.360000 2.045000
389 3 0.000000 33.630000 21.360000 0.000000
390 3 0.000000 35.675000 23.405000 0.000000
391 3 0.000000 33.630000 23.405000 2.045000
392 3 0.000000 35.675000 21.360000 2.045000
393 3 0.000000 37.720000 21.360000 0.000000
394 3 0.000000 39.765000 23.405000 0.000000
395 3 0.000000 37.720000 23.405000 2.045000
396 3 0.000000 39.765000 21.360000 2.045000
397 3 0.000000 41.810000 21.360000 0.000000
398 3 0.000000 43.855000 23.405000 0.000000
399 3 0.000000 41.810000 23.405000 2.045000
400 3 0.000000 43.855000 21.360000 2.045000
401 3 0.000000 5.000000 25.450000 0.000000
402 3 0.000000 7.045000 27.495000 0.000000
403 3 0.000000 5.000000 27.495000 2.045000
404 3 0.000000 7.045000 25.450000 2.045000
405 3 0.000000 9.090000 25.450000 0.000000
406 3 0.000000 11.135000 27.495000 0.000000
407 3 0.000000 9.090000 27.495000 2.045000
408 3 0.000000 11.135000 25.450000 2.045000
409 3 0.000000 13.180000 25.450000 0.000000
410 3 0.000000 15.225000 27.495000 0.000000
411 3 0.000000 13.180000 27.495000 2.045000
412 3 0.000000 15.225000 25.450000 2.045000
413 3 0.000000 17.270000 25.450000 0.000000
414 3 0.000000 19.315000 27.495000 0.000000
415 3 0.000000 17.270000 27.495000 2.045000
416 3 0.000000 19.315000 25.450000 2.045000
417 3 0.000000 21.360000 25.450000 0.000000
418 3 0.000000 23.405000 27.495000 0.000000
419 3 0.000000 21.360000 27.495000 2.045000
420 3 0.000000 23.405000 25.450000 2.045000
421 3 0.000000 25.450000 25.450000 0.000000
422 3 0.000000 27.495000 27.495000 0.000000
423 3 0.000000 25.450000 27.495000 2.045000
424 3 0.000000 27.495000 25.450000 2.045000
425 3 0.000000 29.540000 25.450000 0.000000
426 3 0.000000 31.585000 27.495000 0.000000
427 3 0.000000 29.540000 27.495000 2.045000
428 3 0.000000 31.585000 25.450000 2.045000
429 3 0.000000 33.630000 25.450000 0.000000
430 3 0.000000 35.675000 27.495000 0.000000
431 3 0.000000 33.630000 27.495000 2.045000
432 3 0.000000 35.675000 25.450000 2.045000
433 3 0.000000 37.720000 25.450000 0.000000
434 3 0.000000 39.765000 27.495000 0.000000
435 3 0.000000 37.720000 27.495000 2.045000
436 3 0.000000 39.765000 25.450000 2.045000
437 3 0.000000 41.810000 25.450000 0.000000
438 3 0.000000 43.855000 27.495000 0.000000
439 3 0.000000 41.810000 27.495000 2.045000
440 3 0.000000 43.855000 25.450000 2.045000
441 3 0.000000 5.000000 29.540000 0.000000
442 3 0.000000 7.045000 31.585000 0.000000
443 3 0.000000 5.000000 31.585000 2.045000
444 3 0.000000 7.045000 29.540000 2.045000
445 3 0.000000 9.090000 29.540000 0.000000
446 3 0.000000 11.135000 31.585000 0.000000
447 3 0.000000 9.090000 31.585000 2.045000
448 3 0.000000 11.135000 29.540000 2.045000
449 3 0.000000 13.180000 29.540000 0.000000
450 3 0.000000 15.225000 31.585000 0.000000
451 3 0.000000 13.180000 31.585000 2.045000
452 3 0.000000 15.225000 29.540000 2.045000
453 3 0.000000 17.270000 29.540000 0.000000
454 3 0.000000 19.315000 31.585000 0.000000
455 3 0.000000 17.270000 31.585000 2.045000
456 3 0.000000 19.315000 29.540000 2.045000
457 3 0.000000 21.360000 29.540000 0.000000
458 3 0.000000 23.405000 31.585000 0.000000
459 3 0.000000 21.360000 31.585000 2.045000
460 3 0.000000 23.405000 29.540000 2.045000
461 3 0.000000 25.450000 29.540000 0.000000
462 3 0.000000 27.495000 31.585000 0.000000
463 3 0.000000 25.450000 31.585000 2.045000
464 3 0.000000 27.495000 29.540000 2.045000
465 3 0.000000 29.540000 29.540000 0.000000
466 3 0.000000 31.585000 31.585000 0.000000
467 3 0.000000 29.540000 31.585000 2.045000
468 3 0.000000 31.585000 29.540000 2.045000
469 3 0.000000 33.630000 29.540000 0.000000
470 3 0.000000 35.675000 31.585000 0.000000
471 3 0.000000 33.630000 31.585000 2.045000
472 3 0.000000 35.675000 29.540000 2.045000
473 3 0.000000 37.720000 29.540000 0.000000
474 3 0.000000 39.765000 31.585000 0.000000
475 3 0.000000 37.720000 31.585000 2.045000
476 3 0.000000 39.765000 29.540000 2.045000
477 3 0.000000 41.810000 29.540000 0.000000
478 3 0.000000 43.855000 31.585000 0.000000
479 3 0.000000 41.810000 31.585000 2.045000
480 3 0.000000 43.855000 29.540000 2.045000
481 3 0.000000 5.000000 33.630000 0.000000
482 3 0.000000 7.045000 35.675000 0.000000
483 3 0.000000 5.000000 35.675000 2.045000
484 3 0.000000 7.045000 33.630000 2.045000
485 3 0.000000 9.090000 33.630000 0.000000
486 3 0.000000 11.135000 35.675000 0.000000
487 3 0.000000 9.090000 35.675000 2.045000
488 3 0.000000 11.135000 33.630000 2.045000
489 3 0.000000 13.180000 33.630000 0.000000
490 3 0.000000 15.225000 35.675000 0.000000
491 3 0.000000 13.180000 35.675000 2.045000
492 3 0.000000 15.225000 33.630000 2.045000
493 3 0.000000 17.270000 33.630000 0.000000
494 3 0.000000 19.315000 35.675000 0.000000
495 3 0.000000 17.270000 35.675000 2.045000
496 3 0.000000 19.315000 33.630000 2.045000
497 3 0.000000 21.360000 33.630000 0.000000
498 3 0.000000 23.405000 35.675000 0.000000
499 3 0.000000 21.360000 35.675000 2.045000
500 3 0.000000 23.405000 33.630000 2.045000
501 3 0.000000 25.450000 33.630000 0.000000
502 3 0.000000 27.495000 35.675000 0.000000
503 3 0.000000 25.450000 35.675000 2.045000
504 3 0.000000 27.495000 33.630000 2.045000
505 3 0.000000 29.540000 33.630000 0.000000
506 3 0.000000 31.585000 35.675000 0.000000
507 3 0.000000 29.540000 35.675000 2.045000
508 3 0.000000 31.585000 33.630000 2.045000
509 3 0.000000 33.630000 33.630000 0.000000
510 3 0.000000 35.675000 35.675000 0.000000
511 3 0.000000 33.630000 35.675000 2.045000
512 3 0.000000 35.675000 33.630000 2.045000
513 3 0.000000 37.720000 33.630000 0.000000
514 3 0.000000 39.765000 35.675000 0.000000
515 3 0.000000 37.720000 35.675000 2.045000
516 3 0.000000 39.765000 33.630000 2.045000
517 3 0.000000 41.810000 33.630000 0.000000
518 3 0.000000 43.855000 35.675000 0.000000
519 3 0.000000 41.810000 35.675000 2.045000
520 3 0.000000 43.855000 33.630000 2.045000
521 3 0.000000 5.000000 37.720000 0.000000
522 3 0.000000 7.045000 39.765000 0.000000
523 3 0.000000 5.000000 39.765000 2.045000
524 3 0.000000 7.045000 37.720000 2.045000
525 3 0.000000 9.090000 37.720000 0.000000
526 3 0.000000 11.135000 39.765000 0.000000
527 3 0.000000 9.090000 39.765000 2.045000
528 3 0.000000 11.135000 37.720000 2.045000
529 3 0.000000 13.180000 37.720000 0.000000
530 3 0.000000 15.225000 39.765000 0.000000
531 3 0.000000 13.180000 39.765000 2.045000
532 3 0.000000 15.225000 37.720000 2.045000
533 3 0.000000 17.270000 37.720000 0.000000
534 3 0.000000 19.315000 39.765000 0.000000
535 3 0.000000 17.270000 39.765000 2.045000
536 3 0.000000 19.315000 37.720000 2.045000
537 3 0.000000 21.360000 37.720000 0.000000
538 3 0.000000 23.405000 39.765000 0.000000
539 3 0.000000 21.360000 39.765000 2.045000
540 3 0.000000 23.405000 37.720000 2.045000
541 3 0.000000 25.450000 37.720000 0.000000
542 3 0.000000 27.495000 39.765000 0.000000
543 3 0.000000 25.450000 39.765000 2.045000
544 3 0.000000 27.495000 37.720000 2.045000
545 3 0.000000 29.540000 37.720000 0.000000
546 3 0.000000 31.585000 39.765000 0.000000
547 3 0.000000 29.540000 39.765000 2.045000
548 3 0.000000 31.585000 37.720000 2.045000
549 3 0.000000 33.630000 37.720000 0.000000
550 3 0.000000 35.675000 39.765000 0.000000
551 3 0.000000 33.630000 39.765000 2.045000
552 3 0.000000 35.675000 37.720000 2.045000
553 3 0.000000 37.720000 37.720000 0.000000
554 3 0.000000 39.765000 39.765000 0.000000
555 3 0.000000 37.720000 39.765000 2.045000
556 3 0.000000 39.765000 37.720000 2.045000
557 3 0.000000 41.810000 37.720000 0.000000
558 3 0.000000 43.855000 39.765000 0.000000
559 3 0.000000 41.810000 39.765000 2.045000
560 3 0.000000 43.855000 37.720000 2.045000
561 3 0.000000 5.000000 41.810000 0.000000
562 3 0.000000 7.045000 43.855000 0.000000
563 3 0.000000 5.000000 43.855000 2.045000
564 3 0.000000 7.045000 41.810000 2.045000
565 3 0.000000 9.090000 41.810000 0.000000
566 3 0.000000 11.135000 43.855000 0.000000
567 3 0.000000 9.090000 43.855000 2.045000
568 3 0.000000 11.135000 41.810000 2.045000
569 3 0.000000 13.180000 41.810000 0.000000
570 3 0.000000 15.225000 43.855000 0.000000
571 3 0.000000 13.180000 43.855000 2.045000
572 3 0.000000 15.225000 41.810000 2.045000
573 3 0.000000 17.270000 41.810000 0.000000
574 3 0.000000 19.315000 43.855000 0.000000
575 3 0.000000 17.270000 43.855000 2.045000
576 3 0.000000 19.315000 41.810000 2.045000
577 3 0.000000 21.360000 41.810000 0.000000
578 3 0.000000 23.405000 43.855000 0.000000
579 3 0.000000 21.360000 43.855000 2.045000
580 3 0.000000 23.405000 41.810000 2.045000
581 3 0.000000 25.450000 41.810000 0.000000
582 3 0.000000 27.495000 43.855000 0.000000
583 3 0.000000 25.450000 43.855000 2.045000
584 3 0.000000 27.495000 41.810000 2.045000
585 3 0.000000 29.540000 41.810000 0.000000
586 3 0.000000 31.585000 43.855000 0.000000
587 3 0.000000 29.540000 43.855000 2.045000
588 3 0.000000 31.585000 41.810000 2.045000
589 3 0.000000 33.630000 41.810000 0.000000
590 3 0.000000 35.675000 43.855000 0.000000
591 3 0.000000 33.630000 43.855000 2.045000
592 3 0.000000 35.675000 41.810000 2.045000
593 3 0.000000 37.720000 41.810000 0.000000
594 3 0.000000 39.765000 43.855000 0.000000
595 3 0.000000 37.720000 43.855000 2.045000
596 3 0.000000 39.765000 41.810000 2.045000
597 3 0.000000 41.810000 41.810000 0.000000
598 3 0.000000 43.855000 43.855000 0.000000
599 3 0.000000 41.810000 43.855000 2.045000
600 3 0.000000 43.855000 41.810000 2.045000
601 3 0.000000 5.000000 5.000000 4.090000
602 3 0.000000 7.045000 7.045000 4.090000
603 3 0.000000 5.000893 6.973369 6.263254
604 3 0.000000 6.873914 4.988627 6.152052
605 3 0.000000 9.090000 5.000000 4.090000
606 3 0.000000 11.135000 7.045000 4.090000
607 3 0.000000 9.161642 7.013996 6.197734
608 3 0.000000 11.081228 5.092176 6.272322
609 3 0.000000 13.180000 5.000000 4.090000
610 3 0.000000 15.225000 7.045000 4.090000
611 3 0.000000 13.147175 7.051822 6.327797
612 3 0.000000 15.109206 4.856362 6.439796
613 3 0.000000 17.270000 5.000000 4.090000
614 3 0.000000 19.315000 7.045000 4.090000
615 3 0.000000 17.249636 7.062372 6.194768
616 3 0.000000 19.289176 4.987474 6.286902
617 3 0.000000 21.360000 5.000000 4.090000
618 3 0.000000 23.405000 7.045000 4.090000
619 3 0.000000 21.262786 7.035049 6.298130
620 3 0.000000 23.343198 4.921531 6.239606
621 3 0.000000 25.450000 5.000000 4.090000
622 3 0.000000 27.495000 7.045000 4.090000
623 3 0.000000 25.374861 6.933889 6.356572
624 3 0.000000 27.445677 5.149512 6.236095
625 3 0.000000 29.540000 5.000000 4.090000
626 3 0.000000 31.585000 7.045000 4.090000
627 3 0.000000 29.570373 7.087524 6.258424
628 3 0.000000 31.634573 4.975040 6.283266
629 3 0.000000 33.630000 5.000000 4.090000
630 3 0.000000 35.675000 7.045000 4.090000
631 3 0.000000 33.696156 7.247555 6.241532
632 3 0.000000 35.672623 4.883108 6.234162
633 3 0.000000 37.720000 5.000000 4.090000
634 3 0.000000 39.765000 7.045000 4.090000
635 3 0.000000 37.705683 7.035175 6.352317
636 3 0.000000 39.574561 4.982180 6.320768
637 3 0.000000 41.810000 5.000000 4.090000
638 3 0.000000 43.855000 7.045000 4.090000
639 3 0.000000 41.736011 7.046556 6.202103
640 3 0.000000 43.817967 4.889786 6.234050
641 3 0.000000 5.000000 9.090000 4.090000
642 3 0.000000 7.045000 11.135000 4.090000
643 3 0.000000 4.984014 11.084335 6.155881
644 3 0.000000 7.177249 8.980296 6.265990
645 3 0.000000 9.090000 9.090000 4.090000
646 3 0.000000 11.135000 11.135000 4.090000
647 3 0.000000 8.995098 11.247298 6.341904
648 3 0.000000 11.085492 9.264069 6.306445
649 3 0.000000 13.180000 9.090000 4.090000
650 3 0.000000 15.225000 11.135000 4.090000
651 3 0.000000 13.142959 11.144410 6.345622
652 3 0.000000 15.170902 9.016128 6.321970
653 3 0.000000 17.270000 9.090000 4.090000
654 3 0.000000 19.315000 11.135000 4.090000
655 3 0.000000 17.094437 11.145078 6.379339
656 3 0.000000 19.315806 9.216186 6.305805
657 3 0.000000 21.360000 9.090000 4.090000
658 3 0.000000 23.405000 11.135000 4.090000
659 3 0.000000 21.399795 11.177458 6.187149
660 3 0.000000 23.512079 8.941129 6.381986
661 3 0.000000 25.450000 9.090000 4.090000
662 3 0.000000 27.495000 11.135000 4.090000
663 3 0.000000 25.432091 11.145771 6.277941
664 3 0.000000 27.410981 8.928196 6.392543
665 3 0.000000 29.540000 9.090000 4.090000
666 3 0.000000 31.585000 11.135000 4.090000
667 3 0.000000 29.467402 10.966304 6.427616
668 3 0.000000 31.617592 9.116118 6.317442
669 3 0.000000 33.630000 9.090000 4.090000
670 3 0.000000 35.675000 11.135000 4.090000
671 3 0.000000 33.629934 11.063054 6.299341
672 3 0.000000 35.797571 9.098485 6.273831
673 3 0.000000 37.720000 9.090000 4.090000
674 3 0.000000 39.765000 11.135000 4.090000
675 3 0.000000 37.854409 11.160777 6.304911
676 3 0.000000 39.775732 9.101249 6.412975