LAMMPS data file
 2785 atoms
 3 atom types
 3.97750 44.87750  xlo xhi
 3.97750 44.87750  ylo yhi
 -2.00000 62.00000  zlo zhi

# Pair Coeffs
# 1  H-h2o2
# 2  O-h2o2
# 3  Ag

 Masses

 1 1.007940 # H
 2 15.999400 # O
 3 107.868200 # Ag

 Atoms # charge

1 2 -0.410000 9.476000 39.588001 47.891702
2 2 -0.410000 8.033000 39.428001 47.965703
3 1 0.410000 9.667000 39.305000 48.805703
4 1 0.410000 7.843000 39.712002 47.050702
5 2 -0.410000 23.820000 17.299000 40.706704
6 2 -0.410000 24.783001 18.268000 41.202703
7 1 0.410000 23.046000 17.655001 41.185704
8 1 0.410000 25.555000 17.912001 40.724702
9 2 -0.410000 38.146999 24.177000 51.619703
10 2 -0.410000 39.179001 23.215000 51.270703
11 1 0.410000 37.391998 23.658001 51.282705
12 1 0.410000 39.933998 23.733999 51.607701
13 2 -0.410000 29.021999 15.439000 45.041703
14 2 -0.410000 28.393999 16.506001 45.802701
15 1 0.410000 28.569000 14.700000 45.490705
16 1 0.410000 28.847000 17.245001 45.353704
17 2 -0.410000 22.908001 19.539000 35.998704
18 2 -0.410000 23.848000 19.704000 37.094705
19 1 0.410000 22.393000 18.813999 36.400705
20 1 0.410000 24.363001 20.429001 36.691701
21 2 -0.410000 8.805000 38.313000 53.986703
22 2 -0.410000 9.547000 39.529999 53.706704
23 1 0.410000 8.044000 38.742001 54.421704
24 1 0.410000 10.307000 39.099998 53.271703
25 2 -0.410000 38.266998 28.704000 45.762704
26 2 -0.410000 38.050999 27.362000 46.277703
27 1 0.410000 38.113998 29.173000 46.605703
28 1 0.410000 38.202999 26.893999 45.434701
29 2 -0.410000 36.210999 22.607000 52.961702
30 2 -0.410000 36.646999 21.238001 52.742704
31 1 0.410000 35.441002 22.577000 52.362703
32 1 0.410000 37.417000 21.268999 53.342702
33 2 -0.410000 40.735001 19.934999 34.609704
34 2 -0.410000 39.938000 20.337999 33.463704
35 1 0.410000 40.188000 20.375999 35.287702
36 1 0.410000 40.487000 19.896999 32.786702
37 2 -0.410000 32.153999 30.260000 37.557702
38 2 -0.410000 31.841999 30.645000 38.923703
39 1 0.410000 32.627998 31.079000 37.315702
40 1 0.410000 31.368000 29.826000 39.164704
41 2 -0.410000 39.681999 9.673000 34.328702
42 2 -0.410000 40.589001 9.185000 35.352704
43 1 0.410000 38.863998 9.596000 34.856702
44 1 0.410000 41.405998 9.262000 34.824704
45 2 -0.410000 23.724001 28.577999 48.100702
46 2 -0.410000 25.127001 28.954000 48.038701
47 1 0.410000 23.870001 27.617001 48.191701
48 1 0.410000 24.980000 29.915001 47.947702
49 2 -0.410000 17.603001 19.106001 41.329702
50 2 -0.410000 18.493000 18.330000 40.481702
51 1 0.410000 16.941000 18.402000 41.469705
52 1 0.410000 19.155001 19.034000 40.341703
53 2 -0.410000 20.990999 13.436000 52.044702
54 2 -0.410000 22.268999 14.127000 52.032705
55 1 0.410000 20.434999 14.230000 52.165704
56 1 0.410000 22.823999 13.333000 51.911702
57 2 -0.410000 15.404000 25.905001 40.010701
58 2 -0.410000 16.513000 26.722000 39.546704
59 1 0.410000 15.904000 25.412001 40.689702
60 1 0.410000 16.011999 27.214001 38.868703
61 2 -0.410000 33.889999 35.210999 51.654702
62 2 -0.410000 34.223999 36.609001 51.870702
63 1 0.410000 33.007999 35.366001 51.264703
64 1 0.410000 35.105000 36.453999 52.261705
65 2 -0.410000 33.265999 29.301001 44.281701
66 2 -0.410000 33.627998 30.621000 43.791703
67 1 0.410000 34.148998 29.061001 44.620702
68 1 0.410000 32.743999 30.860001 43.452703
69 2 -0.410000 29.872999 10.639000 40.372705
70 2 -0.410000 28.583000 10.349000 40.974702
71 1 0.410000 29.538000 10.831000 39.475702
72 1 0.410000 28.919001 10.157000 41.870702
73 2 -0.410000 9.641000 6.963000 47.430703
74 2 -0.410000 9.659000 8.183000 48.218702
75 1 0.410000 10.575000 6.719000 47.578702
76 1 0.410000 8.725000 8.426000 48.069703
77 2 -0.410000 22.565001 16.115999 45.971704
78 2 -0.410000 21.528000 15.596000 45.095704
79 1 0.410000 22.385000 17.062000 45.809701
80 1 0.410000 21.709000 14.651000 45.257703
81 2 -0.410000 27.431999 15.700000 39.388704
82 2 -0.410000 27.441000 14.590000 40.327703
83 1 0.410000 26.500000 15.956000 39.528703
84 1 0.410000 28.372999 14.335000 40.187703
85 2 -0.410000 22.235001 21.785000 43.280702
86 2 -0.410000 22.888000 20.524000 43.588704
87 1 0.410000 22.906000 22.363001 43.692704
88 1 0.410000 22.216999 19.948000 43.176702
89 2 -0.410000 5.963000 35.132999 39.175702
90 2 -0.410000 5.392000 36.469002 39.203702
91 1 0.410000 5.129000 34.651001 39.333703
92 1 0.410000 6.226000 36.950001 39.045701
93 2 -0.410000 24.315001 16.090000 51.541703
94 2 -0.410000 25.490999 15.684000 52.291703
95 1 0.410000 24.270000 15.302000 50.967702
96 1 0.410000 25.535000 16.473000 52.864701
97 2 -0.410000 9.398000 39.806999 39.093702
98 2 -0.410000 10.769000 39.675999 38.628701
99 1 0.410000 9.243000 38.855999 39.253701
100 1 0.410000 10.924000 40.626999 38.468702
101 2 -0.410000 33.300999 7.665000 46.046704
102 2 -0.410000 33.973000 7.143000 44.868703
103 1 0.410000 32.477001 7.932000 45.596704
104 1 0.410000 34.797001 6.877000 45.319703
105 2 -0.410000 29.551001 31.787001 49.221704
106 2 -0.410000 30.809000 32.507000 49.326703
107 1 0.410000 29.028999 32.528000 48.856702
108 1 0.410000 31.330000 31.766001 49.691701
109 2 -0.410000 27.159000 25.893000 33.931703
110 2 -0.410000 27.382999 24.704000 34.736703
111 1 0.410000 27.188000 26.534000 34.667703
112 1 0.410000 27.354000 24.063999 33.999704
113 2 -0.410000 25.371000 17.830999 34.908704
114 2 -0.410000 24.239000 18.368999 34.173703
115 1 0.410000 25.054001 16.909000 34.944703
116 1 0.410000 24.556999 19.291000 34.138704
117 2 -0.410000 37.915001 22.988001 44.002702
118 2 -0.410000 36.978001 24.069000 44.260701
119 1 0.410000 38.723000 23.535000 44.011705
120 1 0.410000 36.169998 23.520000 44.251702
121 2 -0.410000 8.495000 27.589001 46.682702
122 2 -0.410000 7.378000 28.392000 46.212705
123 1 0.410000 8.950000 28.302999 47.168702
124 1 0.410000 6.924000 27.677999 45.726705
125 2 -0.410000 23.315001 37.811001 52.796704
126 2 -0.410000 23.438000 36.911999 53.931703
127 1 0.410000 22.598000 37.326000 52.345704
128 1 0.410000 24.156000 37.398998 54.380704
129 2 -0.410000 35.856998 33.528000 37.466703
130 2 -0.410000 36.514000 34.535000 36.649701
131 1 0.410000 36.658001 33.223999 37.934701
132 1 0.410000 35.713001 34.838001 36.180703
133 2 -0.410000 38.365002 39.233002 45.850702
134 2 -0.410000 38.863998 38.073002 45.131704
135 1 0.410000 38.953999 39.146999 46.624704
136 1 0.410000 38.275002 38.160000 44.357701
137 2 -0.410000 21.648001 19.767000 52.873704
138 2 -0.410000 21.099001 18.424999 52.779702
139 1 0.410000 20.820000 20.242001 52.668702
140 1 0.410000 21.927999 17.951000 52.984704
141 2 -0.410000 28.829000 10.710000 37.271703
142 2 -0.410000 27.816000 11.751000 37.322702
143 1 0.410000 28.229000 9.961000 37.456704
144 1 0.410000 28.416000 12.499000 37.137704
145 2 -0.410000 33.737999 11.156000 37.090703
146 2 -0.410000 32.771000 12.217000 36.865705
147 1 0.410000 33.396999 10.877000 37.962705
148 1 0.410000 33.112000 12.495000 35.993703
149 2 -0.410000 21.486000 24.635000 52.202703
150 2 -0.410000 20.913000 23.337999 51.881704
151 1 0.410000 22.028000 24.721001 51.394704
152 1 0.410000 20.371000 23.254000 52.689702
153 2 -0.410000 27.910000 6.768000 34.670701
154 2 -0.410000 29.129999 6.154000 34.172704
155 1 0.410000 27.566999 5.978000 35.130704
156 1 0.410000 29.473000 6.945000 33.712705
157 2 -0.410000 22.731001 21.598000 50.901704
158 2 -0.410000 22.871000 21.945000 49.497705
159 1 0.410000 22.386999 20.695000 50.760701
160 1 0.410000 23.215000 22.847000 49.639703
161 2 -0.410000 36.432999 10.617000 41.102704
162 2 -0.410000 37.352001 10.826000 42.209703
163 1 0.410000 36.214001 11.558000 40.959703
164 1 0.410000 37.570000 9.885000 42.351705
165 2 -0.410000 38.084000 32.120998 44.116704
166 2 -0.410000 38.519001 32.627998 45.407705
167 1 0.410000 37.464001 31.450001 44.462705
168 1 0.410000 39.138000 33.298000 45.060704
169 2 -0.410000 36.662998 18.013000 44.312703
170 2 -0.410000 36.658001 19.400000 43.878701
171 1 0.410000 37.292999 17.688000 43.641702
172 1 0.410000 36.028000 19.725000 44.549703
173 2 -0.410000 29.781000 18.993999 35.462705
174 2 -0.410000 29.670000 20.191999 34.647702
175 1 0.410000 29.379999 18.381001 34.815702
176 1 0.410000 30.070000 20.804001 35.294702
177 2 -0.410000 39.209999 35.342999 37.027703
178 2 -0.410000 38.376999 36.417999 37.541703
179 1 0.410000 38.695999 35.183998 36.212705
180 1 0.410000 38.891998 36.577000 38.356702
181 2 -0.410000 35.881001 26.318001 37.161702
182 2 -0.410000 34.896999 27.205999 36.566701
183 1 0.410000 36.651001 26.655001 36.665704
184 1 0.410000 34.126999 26.868999 37.062703
185 2 -0.410000 19.110001 24.863001 44.429704
186 2 -0.410000 17.681000 24.849001 44.168702
187 1 0.410000 19.316000 24.023001 43.976705
188 1 0.410000 17.476000 25.688999 44.622705
189 2 -0.410000 18.878000 28.671000 36.352704
190 2 -0.410000 19.733999 27.507999 36.183702
191 1 0.410000 19.236000 29.183001 35.602704
192 1 0.410000 19.375999 26.996000 36.933702
193 2 -0.410000 22.250000 41.791000 44.257703
194 2 -0.410000 23.488001 41.231998 44.774701
195 1 0.410000 22.011000 42.294998 45.058702
196 1 0.410000 23.726000 40.729000 43.972703
197 2 -0.410000 18.462000 18.341999 48.215703
198 2 -0.410000 19.362000 17.207001 48.333703
199 1 0.410000 19.096001 18.944000 47.781701
200 1 0.410000 18.728001 16.606001 48.767701
201 2 -0.861175 41.618639 18.390692 18.932837
202 1 -0.286516 4.768042 13.761859 1.795411
203 2 -0.913502 34.475648 25.891424 22.968325
204 2 -0.959722 35.998384 18.864097 24.387439
205 1 -0.255148 44.194774 10.745340 5.795879
206 1 -0.336367 28.930928 18.043209 21.438933
207 2 -0.843245 40.084733 4.860736 14.955963
208 2 -0.785087 41.035351 43.403460 22.954130
209 1 -0.291829 6.343490 33.729184 14.692522
210 1 -0.269371 11.019398 9.033096 3.935645
211 2 -0.876158 13.649190 30.767376 20.670419
212 1 -0.335391 12.707230 9.180912 15.296909
213 2 -0.835982 18.712868 17.475849 13.034984
214 2 -0.856500 9.573689 35.258703 22.109517
215 1 -0.278041 37.425725 9.323291 6.895117
216 1 -0.273900 44.440921 41.407659 14.153157
217 2 -0.911432 5.755271 26.195746 23.012152
218 1 -0.274234 5.295025 33.843601 2.199751
219 2 -0.929954 34.157221 40.366028 16.824784
220 2 -0.881947 36.606339 30.130217 20.504267
221 1 -0.281937 44.247059 43.433858 1.825639
222 1 -0.273177 27.567433 6.579471 6.276401
223 2 -0.920656 6.617510 23.146090 22.360177
224 2 -0.904720 13.815189 25.143544 21.924048
225 1 -0.277531 21.431819 39.487233 3.940189
226 1 -0.290796 14.717613 25.304681 3.686277
227 2 -0.698469 35.220153 33.517687 24.455486
228 2 -0.868790 33.623445 30.497732 20.154860
229 1 -0.254660 40.110775 21.330520 0.155968
230 2 -0.950750 31.937670 44.710056 21.353455
231 2 -0.911450 29.800253 9.227681 21.891988
232 1 -0.378720 35.459283 36.810233 17.867537
233 1 -0.238827 19.742126 37.389084 8.675407
234 2 -0.888357 16.132567 43.069137 18.514962
235 2 -0.845533 20.336086 12.238056 13.364414
236 1 -0.279099 13.068968 35.800723 4.151139
237 1 -0.281715 19.418620 40.268593 6.259314
238 2 -0.891607 9.326026 13.483433 17.906237
239 2 -0.874792 4.829883 11.108157 19.626822
240 1 -0.279058 13.158894 41.924176 6.433937
241 1 -0.276907 43.966915 35.493012 6.265664
242 2 -0.395890 22.449415 11.280255 22.992343
243 2 -0.402908 22.626222 9.998705 23.073974
244 1 -0.276995 7.496063 5.334902 4.836525
245 2 -0.748360 7.753327 13.336388 24.246952
246 2 -0.858026 44.312161 18.593328 20.174041
247 1 0.164152 7.130458 12.686812 24.721466
248 1 -0.229356 16.424845 5.568719 11.575226
249 1 -0.266404 4.896757 43.509473 4.182735
250 2 -0.857102 27.337439 43.502732 20.514051
251 2 -0.881334 24.823646 44.057146 20.955854
252 1 -0.292664 17.997029 38.618528 2.899648
253 1 -0.284914 36.955422 14.661783 9.316822
254 2 -0.441387 4.546970 18.637903 25.086793
255 2 -0.427813 44.571607 17.745915 24.692027
256 2 -0.862679 5.891592 31.861054 21.809747
257 2 -0.851643 9.284537 40.810994 21.543181
258 1 -0.256224 35.926254 35.682515 7.369129
259 1 -0.334109 6.316641 43.168620 22.224190
260 2 -0.879266 9.900549 6.176784 20.004253
261 2 -0.853404 5.216441 8.982803 21.600224
262 1 -0.355600 41.254615 44.013912 19.074395
263 1 -0.277686 8.024753 38.759684 1.178192
264 2 -0.855818 10.665223 10.262740 12.490285
265 2 -0.913548 15.935811 10.582891 18.737946
266 1 -0.277493 33.804399 19.630437 3.830323
267 1 -0.381617 9.159734 16.956543 19.531384
268 1 -0.249396 20.492679 36.931719 7.356845
269 2 -0.865992 33.898510 38.476845 22.760836
270 1 -0.272226 42.795116 12.200939 4.939286
271 1 -0.280974 9.130608 27.201785 3.899653
272 2 -0.908440 9.424170 33.152191 16.306365
273 2 -0.863391 8.807234 32.242706 21.054639
274 1 -0.274441 15.119062 21.353140 7.947204
275 1 -0.268156 9.142788 39.809143 4.122107
276 2 -0.306576 25.452471 30.250412 24.664197
277 2 -0.414481 25.195804 31.402534 24.287294
278 2 -0.890913 30.416524 15.311468 22.684469
279 1 -0.278764 29.565689 4.901404 5.823932
280 2 -0.909497 5.948211 37.040654 18.406275
281 2 -0.879388 14.301425 38.572094 21.505804
282 1 -0.263192 8.417320 37.380794 2.505649
283 1 -0.282544 11.099088 43.797747 6.279736
284 2 -0.875559 5.610259 6.907154 23.438331
285 2 -0.887678 10.284127 6.407325 16.421893
286 1 -0.310309 5.807896 42.996655 18.900315
287 1 -0.285434 13.792005 17.994027 2.775857
288 2 -0.874235 37.109292 35.024447 22.447764
289 2 -0.892366 38.975649 38.099308 18.195119
290 1 -0.293702 38.567927 40.615302 19.731024
291 1 -0.379299 41.214021 36.190120 16.947883
292 2 -0.902301 27.986712 14.052990 21.629166
293 2 -0.723053 41.949616 32.485788 24.297304
294 1 -0.267333 31.317555 15.131731 6.215934
295 1 -0.281157 5.219348 38.998965 9.613621
296 2 -0.841988 35.147458 32.645661 21.762337
297 2 -0.843325 31.429112 27.983052 19.242954
298 1 -0.307761 26.651387 29.182213 17.001083
299 1 -0.280254 39.597424 19.273941 1.751282
300 2 -0.877330 8.019653 30.158534 16.735107
301 1 -0.249120 30.442396 32.107015 9.350757
302 2 -0.844312 39.028906 29.709168 13.805650
303 2 -0.883577 37.826206 27.738358 19.600093
304 1 -0.290736 33.608901 31.290125 3.943586
305 1 -0.273672 24.818982 11.313876 17.784133
306 2 -0.888619 43.371866 11.780726 17.937790
307 1 -0.291927 9.432189 39.667056 8.125020
308 1 -0.343833 17.499741 13.847357 13.862073
309 2 -0.842333 41.840759 25.024836 16.794429
310 2 -0.875356 41.461126 32.238735 20.917526
311 1 -0.283330 19.242631 33.652036 7.413050
312 2 -0.834317 27.595038 38.094071 14.552980
313 2 -0.799885 23.593732 41.888171 13.596681
314 1 -0.287457 7.171512 39.393499 6.272486
315 1 -0.298269 44.796402 38.690464 2.807308
316 2 -0.872103 42.178736 24.262405 23.145626
317 2 -0.868473 43.698766 27.047452 24.065525
318 1 -0.278527 17.032788 25.451364 6.968775
319 1 -0.335582 4.738658 4.125120 21.945977
320 2 -0.878153 23.293199 41.896872 20.009342
321 2 -0.957995 19.504210 32.926258 20.040955
322 1 -0.286451 23.569916 15.156821 2.434111
323 1 -0.264674 9.767851 30.305618 15.015626
324 2 -0.787304 32.671429 39.971488 12.906728
325 1 -0.323774 31.773362 7.188596 19.017778
326 2 -0.891988 25.977911 6.692793 18.091163
327 2 -0.881771 30.116462 42.456231 20.834742
328 1 -0.288891 34.729536 7.888642 3.093785
329 1 -0.308945 17.192114 21.525370 15.408705
330 2 -0.882061 4.380742 15.820019 20.508151
331 2 -0.905931 6.138780 18.290762 21.491191
332 1 -0.271778 9.085486 11.332847 8.293146
333 1 -0.282384 7.404026 21.146143 7.574712
334 2 -0.886911 27.336648 11.042793 20.815480
335 2 -0.973898 32.221344 10.771828 23.326763
336 1 -0.270547 23.580144 10.871296 6.026742
337 1 -0.320823 39.677138 33.913575 14.385548
338 2 -0.868334 20.404073 25.015066 21.006703
339 1 -0.269988 13.035533 25.153671 1.517257
340 1 -0.280236 29.569190 27.284020 4.479090
341 2 -0.865662 30.409122 8.680808 24.946349
342 1 -0.240086 37.670458 43.950256 0.446936
343 1 -0.329473 23.439035 9.670765 17.668086
344 2 -0.881182 14.124694 27.312613 17.050920
345 2 -0.925666 20.776539 26.176376 18.201600
346 1 -0.290943 18.445971 30.138683 14.590752
347 1 -0.314299 4.776600 28.200020 14.699064
348 2 -0.913042 35.924540 21.540576 23.822208
349 2 -0.894231 33.929099 23.412540 21.784067
350 1 -0.287339 35.978754 43.774819 6.235948
351 1 -0.270586 43.946597 9.216830 3.928802
352 2 -0.865620 26.579015 28.037080 19.752394
353 2 -0.857110 25.955856 26.122452 21.965947
354 1 -0.281156 25.585105 11.179134 4.179340
355 1 -0.289901 39.018658 14.420800 2.822971
356 2 -0.937776 6.616280 34.499929 20.194869
357 2 -0.858036 7.445380 39.516964 18.920709
358 1 -0.282797 9.535505 5.217242 10.676789
359 1 -0.272052 5.074458 13.289695 10.427481
360 2 -0.873555 14.236102 6.357544 12.347138
361 2 -0.875889 10.424425 44.791033 17.820682
362 1 -0.264058 9.142343 37.615220 5.717944
363 1 -0.335016 35.313777 8.443031 16.237693
364 2 -0.904374 32.492317 16.580090 24.663794
365 2 -0.913399 37.708570 27.685630 23.092629
366 1 -0.283395 34.919635 16.638713 0.687250
367 1 -0.327029 30.294130 24.474823 15.280626
368 2 -0.881859 21.910340 30.887730 19.308674
369 1 -0.272350 25.838343 39.768600 4.005023
370 2 -0.931661 18.494678 19.120272 21.138269
371 2 -0.903512 19.303212 21.948950 21.146976
372 1 -0.288674 42.967887 41.082766 0.826875
373 1 -0.305051 15.819986 25.148897 19.260469
374 2 -0.913537 28.628660 6.849197 23.498647
375 1 -0.327791 39.608504 4.394272 18.174677
376 2 -0.840907 36.332575 10.337662 14.137994
377 2 -0.942328 35.489600 17.272607 19.959170
378 1 -0.287086 16.705147 7.025416 13.389653
379 1 -0.278090 20.847928 31.335006 8.466601
380 2 -0.941919 8.351140 5.222394 22.550200
381 2 -0.954655 38.080110 35.226749 18.184770
382 1 -0.286473 15.416769 6.865332 2.260222
383 1 -0.286156 22.215266 34.440565 7.236278
384 2 -0.870176 34.025788 34.360033 14.352177
385 2 -0.871062 27.817349 23.989443 23.115319
386 1 -0.291584 32.735448 38.237487 14.796832
387 1 -0.278959 33.017122 6.166965 8.366239
388 2 -0.877579 5.073169 28.998964 22.945671
389 2 -0.890185 11.655156 16.980121 20.901382
390 1 -0.290947 7.195499 41.709111 3.980894
391 1 -0.257465 5.892871 28.241414 5.110321
392 2 -0.877859 15.108387 4.985042 19.219695
393 2 -0.890619 22.925578 13.242289 18.367359
394 1 -0.277139 20.738953 9.357931 6.874430
395 1 -0.275022 31.214973 24.980316 9.613440
396 2 -0.245966 16.790659 14.349495 23.634693
397 2 -0.485720 16.659163 14.631596 22.364139
398 1 -0.285595 17.615036 13.533455 2.466774
399 2 -0.897363 28.824139 22.842889 18.499697
400 2 -0.857909 29.047928 27.285629 12.781916
401 1 -0.286991 43.786056 25.241785 3.864001
402 1 -0.288105 29.972614 8.785700 1.880394
403 2 -0.858064 20.828892 18.947570 14.646100
404 2 -0.937581 24.855614 18.622218 17.601207
405 1 -0.285776 22.384699 22.171125 3.132247
406 1 -0.272025 29.791616 42.182838 6.156624
407 2 -0.922432 20.920132 30.870167 22.056896
408 1 -0.256910 43.349487 19.126051 5.689390
409 2 -0.872474 24.491727 35.683437 20.791865
410 1 -0.369631 21.046980 35.312617 18.807679
411 2 -0.916300 40.676627 26.662562 24.398460
412 2 -0.867397 39.040606 25.635818 17.811263
413 1 -0.221218 17.880548 16.876273 10.934825
414 1 -0.295158 34.232010 19.306957 17.894479
415 2 -0.811211 21.815653 36.024619 22.268981
416 1 -0.276510 10.722552 39.603309 2.342425
417 2 -0.875989 8.587697 42.931856 23.685154
418 2 -0.849987 43.647731 41.012393 18.964878
419 1 -0.290769 42.176917 5.327236 2.103315
420 1 -0.325287 33.495213 42.217687 19.355830
421 2 -0.881943 31.809863 36.847998 21.185460
422 2 -0.905304 31.688447 35.336030 18.415873
423 1 -0.287216 9.226971 17.690014 2.485703
424 1 -0.284239 37.821615 6.965112 4.333980
425 2 -0.880803 19.675234 38.235608 21.365316
426 2 -0.908451 13.888700 43.124854 20.358847
427 1 -0.308171 29.991235 4.240964 14.822125
428 1 -0.291995 19.497829 27.406437 1.946139
429 2 -0.842716 7.841274 29.730416 21.911027
430 1 -0.335580 11.193756 30.219137 18.061113
431 2 -0.898363 33.672635 5.942571 20.136247
432 1 -0.283168 19.002884 9.452052 3.765453
433 2 -0.862224 28.900139 42.054562 18.279718
434 2 -0.942238 33.688012 5.444433 23.111339
435 1 -0.290452 31.705280 39.624657 2.304271
436 1 -0.276326 27.231854 35.264281 6.328008
437 2 -0.922338 38.185025 21.964101 20.516772
438 2 -0.849534 35.809050 11.787922 20.896433
439 1 -0.289313 35.661238 5.310302 3.999016
440 1 -0.279324 29.039468 12.452186 6.623492
441 1 -0.381242 43.842128 26.315946 21.092707
442 2 -0.857850 14.856909 34.215259 17.592753
443 2 -0.939452 20.400142 28.044535 21.288241
444 1 -0.284404 16.898362 27.565991 8.817141
445 1 -0.327931 14.773587 31.228776 17.831407
446 2 -0.887935 7.644913 18.340308 15.951640
447 2 -0.875957 9.002248 17.767050 22.540710
448 1 -0.272263 6.353371 11.672286 7.633528
449 1 -0.280072 43.736087 29.667376 4.098966
450 2 -0.902309 22.484966 33.433067 20.854686
451 1 -0.278296 30.956070 36.583505 5.234313
452 2 -0.883185 41.040755 27.214383 18.903197
453 2 -0.861990 42.779684 29.770948 19.620486
454 1 -0.278254 4.585736 23.020666 9.722645
455 1 -0.292850 23.245369 36.647064 16.869947
456 2 -0.892762 18.618694 17.929701 16.178602
457 2 -0.955364 16.485966 16.121556 17.451788
458 1 -0.316448 24.900067 44.015527 16.222180
459 1 -0.284302 12.827928 39.662544 9.174871
460 1 -0.373587 37.761312 18.667176 21.785157
461 1 -0.281345 16.995220 9.233150 5.865242
462 2 -0.844993 25.054625 9.176879 19.408739
463 2 -0.849216 13.393817 28.196037 22.260965
464 1 -0.285595 13.220667 23.460875 8.038141
465 1 -0.291300 39.515538 44.037101 1.866218
466 1 -0.283187 29.623793 21.540880 6.628012
467 2 -0.886730 15.999439 32.891845 20.358651
468 2 -0.861944 8.013096 24.848663 17.307243
469 1 -0.278138 39.914923 16.186115 9.841790
470 1 -0.263981 23.132462 29.466493 4.056512
471 2 -0.896694 39.700923 29.739767 20.613641
472 2 -0.858754 35.294662 16.211370 25.703799
473 1 -0.276834 36.251881 24.641919 19.865675
474 2 -0.905805 42.979147 6.007275 20.114834
475 2 -0.855266 38.572082 43.880975 21.458513
476 1 -0.326265 6.856594 4.987754 17.322600
477 1 -0.288315 32.633146 6.053225 5.081095
478 1 -0.277142 44.073451 41.871561 4.261935
479 1 -0.287809 31.515164 27.409653 2.090406
480 1 -0.278813 35.632701 27.783980 1.800539
481 1 -0.303638 30.401313 12.342257 22.247843
482 2 -0.895188 13.948258 16.454964 19.043435
483 2 -0.903940 6.367837 13.948410 19.200029
484 1 -0.290461 13.534637 41.303082 1.571454
485 1 -0.313324 7.722475 11.400013 15.298721
486 2 -0.877214 32.312411 21.709694 19.946280
487 1 -0.284490 17.516053 31.033878 11.757843
488 2 -0.875370 10.010873 22.901955 22.312296
489 2 -0.798495 8.270570 7.809494 22.297340
490 1 -0.264670 43.846277 20.984494 4.621204
491 1 -0.276217 41.707433 35.723376 3.873479
492 1 -0.276960 24.616039 4.852685 6.558134
493 1 -0.293038 29.877027 33.639964 5.652189
494 2 -0.862852 38.198453 5.330735 25.430620
495 2 -0.893674 33.605588 4.974670 17.364460
496 1 -0.279112 39.521239 6.136574 12.267691
497 1 -0.258112 15.632707 29.449226 3.842683
498 2 -0.450854 43.407331 13.760257 22.509552
499 2 -0.434671 42.393801 12.971505 22.432293
500 1 -0.249403 7.048826 26.999670 5.844595
501 1 -0.265508 16.961250 31.222968 4.596722
502 2 -0.890098 4.433400 4.928481 18.440376
503 2 -0.688979 36.895521 10.688838 26.491744
504 1 -0.335828 40.811239 8.747018 16.354981
505 1 -0.286148 37.332189 11.359683 3.773586
506 2 -0.730503 21.387012 16.016833 23.515074
507 1 -0.286322 15.671235 23.262081 10.948547
508 2 -0.913271 40.134723 18.020909 24.169824
509 2 -0.868753 37.165591 8.058462 24.846983
510 1 -0.276716 11.578338 23.710689 1.639720
511 1 -0.224340 7.910907 24.599924 3.064203
512 2 -0.915261 19.277668 16.890515 18.868119
513 1 -0.282922 7.012413 23.621899 6.031307
514 1 -0.259072 40.448353 27.578008 11.626570
515 2 -0.901709 32.744076 26.229993 17.260932
516 2 -0.909805 43.664380 38.226753 19.508825
517 1 -0.359494 35.278492 8.460916 21.960294
518 1 -0.290791 39.935954 6.984626 2.094640
519 2 -0.806099 26.993845 37.129343 20.226507
520 2 -0.847161 26.841393 34.238814 20.230749
521 1 -0.278312 26.830671 41.305071 15.631335
522 1 -0.296650 24.367481 4.533787 18.854120
523 2 -0.930919 25.641174 19.073671 20.875241
524 2 -0.836053 29.869115 20.114575 19.150947
525 1 -0.301643 19.133165 30.758941 16.538567
526 1 -0.273328 35.784069 19.067751 6.159123
527 2 -0.777574 27.784517 38.677732 22.895095
528 2 -0.775518 29.491903 35.138967 20.610067
529 1 0.175863 27.604142 39.322552 23.764282
530 1 -0.255227 33.225939 17.178381 10.621023
531 1 -0.276898 5.070684 19.051982 4.092635
532 2 -0.906102 22.355351 27.679949 15.598907
533 2 -0.938099 21.433660 17.774243 20.752237
534 1 -0.273630 17.267090 44.037703 4.079053
535 1 -0.275641 27.331379 17.389138 3.808295
536 2 -0.908742 15.453886 7.502823 17.556181
537 2 -0.876526 17.895744 10.996396 21.025397
538 1 -0.285809 37.242162 17.025407 2.669682
539 1 -0.373109 14.480714 39.573028 18.427476
540 2 -0.472304 12.013080 9.467606 20.444200
541 2 -0.325838 11.904059 9.193164 21.710690
542 1 -0.281708 39.578390 43.872772 5.998149
543 1 -0.259359 13.925126 37.985202 11.916180
544 2 -0.869737 28.233365 25.458886 20.243104
545 2 -0.881467 11.544001 43.200500 22.397606
546 1 -0.341145 5.705104 7.143851 19.448795
547 1 -0.272155 29.157955 27.209299 7.772327
548 2 -0.860338 35.562793 40.615058 23.598440
549 2 -0.891105 38.486015 41.489400 23.190843
550 1 -0.291609 31.820297 35.690277 2.038121
551 1 -0.250068 33.389882 15.797803 11.582660
552 2 -0.866290 25.288080 36.164986 18.047844
553 2 -0.876779 31.177932 32.897844 15.831919
554 1 -0.258444 37.672641 33.985679 6.714923
555 1 -0.269359 26.724139 35.407682 14.775130
556 2 -0.900372 14.964523 13.390374 17.703796
557 2 -0.869255 16.141239 9.520465 15.898380
558 1 -0.294281 17.036583 11.575897 10.700798
559 1 -0.273149 35.524093 10.643900 5.856241
560 2 -0.704718 22.642403 22.451450 25.353345
561 2 -0.858112 41.090212 4.109468 25.445509
562 1 -0.270822 21.219105 14.706425 3.798588
563 1 -0.271357 38.645978 32.561841 4.928445
564 1 -0.349211 23.456022 15.588773 15.823628
565 2 -0.846864 8.662920 25.642458 22.924794
566 2 -0.826643 16.683995 26.915917 22.052555
567 1 -0.309490 15.423474 23.466264 17.432686
568 1 -0.335227 13.328264 22.770155 18.775199
569 2 -0.254343 11.852365 19.071015 26.558459
570 2 -0.365145 11.629241 20.234861 26.171424
571 1 -0.285013 27.261253 29.860532 4.050343
572 2 -0.848519 44.587016 29.602672 17.415504
573 2 -0.874117 36.116185 32.320879 14.993654
574 1 -0.263162 37.958086 35.818107 8.876430
575 1 -0.281146 23.319791 19.522611 1.934917
576 1 -0.287379 27.629668 15.299669 1.731702
577 1 -0.187068 31.903317 35.186939 22.259931
578 1 -0.235099 38.661687 33.421687 22.719479
579 2 -0.852510 43.533481 43.700595 24.468469
580 2 -0.897353 38.592558 7.694020 19.824167
581 1 -0.296974 38.225497 39.685223 15.237152
582 1 -0.269248 27.636300 41.465632 4.254740
583 1 -0.284659 7.453459 14.998432 1.540084
584 1 -0.280444 32.927963 15.971565 7.616332
585 2 -0.871898 24.428330 20.565977 23.319290
586 2 -0.870900 32.401397 28.530476 22.203546
587 1 -0.273944 13.074498 34.753035 9.088518
588 1 -0.368248 35.963570 44.201463 20.307399
589 1 -0.283870 13.520768 9.396840 2.246706
590 2 -0.450644 24.254838 40.917218 23.780850
591 2 -0.335878 24.710524 41.826544 24.529913
592 2 -0.761760 37.731328 10.422752 23.512148
593 2 -0.901131 40.478319 11.491794 17.189098
594 1 -0.303744 36.588275 20.147021 21.030897
595 1 -0.279275 31.327633 41.632067 4.048534
596 2 -0.948355 26.987291 5.094580 22.225843
597 2 -0.896393 19.165646 4.977803 20.588180
598 1 -0.312861 18.694471 25.843204 14.683331
599 1 -0.307051 29.956694 16.398311 14.761418
600 2 -0.880389 16.182380 28.326860 19.071196
601 2 -0.905567 10.739554 19.995003 21.622243
602 1 -0.234656 6.843851 25.611002 3.893688
603 1 -0.295467 15.203845 21.787856 4.126200
604 2 -0.868997 20.164647 22.780070 14.849148
605 2 -0.951045 28.708933 21.099051 24.424354
606 1 -0.291562 17.574086 33.417037 1.751159
607 1 -0.258602 35.375698 24.033276 19.700715
608 2 -0.874168 20.366629 33.759097 15.011140
609 2 -0.872907 24.946814 30.113369 18.642810
610 1 -0.257858 22.114424 28.677799 5.470159
611 1 -0.290868 28.821764 17.893625 7.209807
612 2 -0.909470 26.100272 9.295328 16.282557
613 2 -0.881717 20.619338 12.583624 16.489184
614 1 -0.287247 41.468988 29.580146 1.683575
615 1 -0.283021 8.106868 30.429706 5.214523
616 2 -0.866245 40.228645 34.688940 22.744108
617 2 -0.925052 39.103380 36.428215 20.795309
618 1 -0.324974 12.770608 12.069566 14.548934
619 1 -0.284075 12.231355 30.669965 0.867247
620 2 -0.911539 6.776356 15.383237 22.211100
621 2 -0.840763 12.184124 14.168401 19.013581
622 1 -0.281211 37.731502 29.342594 1.708010
623 1 -0.275112 22.704878 34.079314 12.743732
624 2 -0.837059 20.807315 14.639873 19.074730
625 2 -0.911525 26.823276 14.364671 15.226018
626 1 -0.274561 16.749663 28.361384 5.048907
627 1 -0.279631 21.618060 43.804329 4.174589
628 1 -0.294962 19.762304 33.272292 4.174629
629 1 -0.282105 19.477234 29.862151 7.608235
630 2 -0.726256 28.554240 32.757684 22.324790
631 1 -0.276913 29.241506 35.610265 3.636950
632 2 -0.893407 34.227270 35.378380 22.390947
633 2 -0.930439 32.842890 38.229210 18.731615
634 1 -0.273286 31.677036 37.737199 8.056829
635 1 -0.276682 35.766562 41.816190 3.782375
636 2 -0.953675 37.948478 16.012195 24.343120
637 2 -0.915732 36.746785 14.642973 21.659737
638 1 -0.265679 28.299743 27.059354 15.165025
639 1 -0.309138 34.247427 13.691194 19.305975
640 2 -0.878393 27.436620 31.124559 20.641183
641 2 -0.885892 26.943060 25.104215 17.195507
642 1 -0.344866 23.753059 27.601988 19.014441
643 1 -0.281786 15.299081 31.112049 6.188733
644 2 -0.884628 37.997686 6.177841 22.363122
645 1 -0.282508 25.698489 25.400330 2.018741
646 2 -0.870255 39.592866 22.840631 23.105998
647 2 -0.917390 41.251341 22.560290 20.718550
648 1 -0.380885 38.432795 29.836992 17.352805
649 1 -0.265041 27.503318 27.539739 6.537412
650 2 -0.935006 41.688587 17.749585 21.751396
651 2 -0.860278 38.663043 20.732564 24.695532
652 1 -0.290777 24.846652 23.641618 12.290338
653 1 -0.283780 34.321527 28.209867 5.051142
654 2 -0.804368 17.303880 20.617320 23.499392
655 2 -0.924360 8.142030 20.533010 22.362701
656 1 -0.282187 44.597285 10.731749 1.332829
657 1 -0.288976 22.833209 7.404403 1.411712
658 2 -0.917390 36.818697 41.671103 20.485770